LAMMPS protain data file

         567  atoms
         752  bonds
           0  angles
           0  dihedrals
           0  impropers

           5  atom types
           5  bond types
           0  angle types
           0  dihedral types
           0  improper types

-200.0	200.0	xlo xhi
-200.0	200.0	ylo yhi
-200.0	200.0	zlo zhi

Masses

           1	27.0
           2	14.0
           3	28.0
           4	60.0
           5	2.0

Atoms

           1	1	1	1	0.0	-6.07000017	15.97399998	12.82999992
           2	1	1	3	0.0	-4.61600018	14.00199986	12.70199966
           3	1	1	4	0.0	-6.80900002	16.28100014	11.51500034
           4	1	2	1	0.0	-2.37100005	15.44099998	11.68299961
           5	1	2	3	0.0	-1.34800005	16.65299988	13.42199993
           6	1	2	4	0.0	-1.77999997	16.17499924	10.45800018
           7	1	3	1	0.0	0.18700001	14.54800034	14.32299995
           8	1	3	3	0.0	2.38100004	15.52900028	14.78800011
           9	1	3	4	0.0	0.17	13.15699959	15.04300022
          10	1	4	1	0.0	3.34299994	15.04699993	12.18999958
          11	1	4	3	0.0	2.92600012	16.17499924	10.07699966
          12	1	4	4	0.0	3.94000006	13.87100029	11.45800018
          13	1	5	1	0.0	3.67000008	18.67300034	11.11800003
          14	1	5	3	0.0	5.53900003	19.41699982	12.44999981
          15	1	5	4	0.0	2.42600012	19.45700073	11.44400024
          16	1	6	1	0.0	6.22399998	21.37400055	10.5909996
          17	1	6	3	0.0	4.7249999	23.13800049	10.00300026
          18	1	6	4	0.0	7.21000004	21.00200081	9.46700001
          19	1	7	1	0.0	6.32000017	25.12899971	10.97700024
          20	1	7	3	0.0	7.91400003	25.75600052	9.32800007
          21	1	7	4	0.0	6.96999979	25.7670002	12.18900013
          22	1	8	1	0.0	6.1079998	27.37999916	8.00300026
          23	1	8	3	0.0	5.26800013	29.06399918	9.43799973
          24	1	8	4	0.0	5.10699987	27.06900024	6.87400007
          25	1	9	1	0.0	6.0999999	31.17499924	7.7750001
          26	1	9	3	0.0	6.58799982	31.53899956	5.5
          27	1	9	4	0.0	7.23699999	32.03499985	8.3409996
          28	1	10	1	0.0	4.38100004	33.31399918	5.171
          29	1	10	3	0.0	5.59899998	35.09700012	6.17500019
          30	1	10	4	0.0	2.87899995	33.35900116	4.94700003
          31	1	11	1	0.0	5.26599979	36.78699875	3.98399997
          32	1	11	3	0.0	5.30499983	38.79800034	5.18300009
          33	1	11	4	0.0	5.06099987	37.30899811	2.55500007
          34	1	12	1	0.0	3.04699993	38.28900146	6.704
          35	1	12	3	0.0	3.05999994	38.13600159	9.11400032
          36	1	12	4	0.0	1.51699996	38.19300079	6.70900011
          37	1	13	1	0.0	5.38000011	36.65299988	9.28999996
          38	1	13	3	0.0	4.66699982	35.80699921	11.36900043
          39	1	13	4	0.0	6.01800013	37.83100128	10.05500031
          40	1	14	1	0.0	2.61800003	34.28099823	10.38399982
          41	1	14	3	0.0	3.33800006	32.29199982	9.25500011
          42	1	14	4	0.0	1.21599996	34.32099915	9.81200027
          43	1	15	1	0.0	3.704	30.82699966	11.54599953
          44	1	15	3	0.0	1.40499997	30.30200005	11.86200047
          45	1	15	4	0.0	4.48400021	30.48900032	12.8210001
          46	1	16	1	0.0	1.53999996	27.93499947	10.52700043
          47	1	16	3	0.0	3.03600001	26.36100006	9.55599976
          48	1	16	4	0.0	0.82700002	28.54800034	9.3039999
          49	1	17	1	0.0	1.78400004	24.12199974	10.53299999
          50	1	17	3	0.0	0.52999997	24.12899971	8.50800037
          51	1	17	4	0.0	1.15699995	23.14900017	11.52499962
          52	1	18	1	0.0	1.82799995	21.82600021	7.55200005
          53	1	18	3	0.0	3.36899996	20.22500038	8.35499954
          54	1	18	4	0.0	2.39199996	22.4279995	6.27400017
          55	1	19	1	0.0	1.98199999	18.06299973	7.34800005
          56	1	19	3	0.0	3.76200008	18.35300064	5.80900002
          57	1	19	4	0.0	0.99699998	17.30500031	6.46199989
          58	1	20	1	0.0	5.421	16.54199982	7.08799982
          59	1	20	3	0.0	6.30800009	16.40399933	4.88999987
          60	1	20	4	0.0	5.92500019	15.39099979	7.94099998
          61	1	21	1	0.0	4.32200003	14.77099991	3.95000005
          62	1	21	3	0.0	5.12400007	15.55200005	1.83899999
          63	1	21	4	0.0	3.02200007	14.00399971	3.79099989
          64	1	22	1	0.0	4.08500004	18.10499954	2.1559999
          65	1	22	3	0.0	6.00600004	18.72699928	0.82800001
          66	1	22	4	0.0	3.34200001	19.35000038	2.6789999
          67	1	23	1	0.0	7.79799986	18.6970005	2.92000008
          68	1	23	3	0.0	9.2489996	17.93199921	1.16400003
          69	1	23	4	0.0	8.45100021	18.7670002	4.30499983
          70	1	24	1	0.0	8.59200001	15.26200008	1.54999995
          71	1	24	3	0.0	9.10700035	15.23400021	-0.787
          72	1	24	4	0.0	8.07999992	13.91800022	2.11599994
          73	1	25	1	0.0	6.63000011	15.98499966	-1.62199998
          74	1	25	3	0.0	8.14000034	16.8390007	-3.30900002
          75	1	25	4	0.0	5.15999985	16.36499977	-1.71500003
          76	1	26	1	0.0	8.46800041	19.26300049	-2.09299994
          77	1	26	3	0.0	10.38399982	19.07999992	-3.52600002
          78	1	26	4	0.0	8.53999996	20.41300011	-1.08299994
          79	1	27	1	0.0	11.86400032	17.61700058	-1.63100004
          80	1	27	3	0.0	12.85400009	17.12400055	-3.74399996
          81	1	27	4	0.0	12.21800041	16.76399994	-0.426
          82	1	28	1	0.0	11.13799953	15.03100014	-4.31099987
          83	1	28	3	0.0	11.55200005	15.66899967	-6.58300018
          84	1	28	4	0.0	10.09500027	13.92199993	-4.18200016
          85	1	29	1	0.0	9.63199997	17.54299927	-6.72399998
          86	1	29	3	0.0	11.43799973	18.0529995	-8.22900009
          87	1	29	4	0.0	8.55500031	18.59700012	-6.4380002
          88	1	30	1	0.0	12.78899956	19.56999969	-6.41400003
          89	1	30	3	0.0	14.46399975	18.94499969	-7.93900013
          90	1	30	4	0.0	13.2869997	20.2140007	-5.1170001
          91	1	31	1	0.0	14.97799969	16.46299934	-6.71999979
          92	1	31	3	0.0	15.78499985	16.16799927	-8.96899986
          93	1	31	4	0.0	14.77799988	15.19299984	-5.85599995
          94	1	32	1	0.0	13.33500004	15.29199982	-9.92800045
          95	1	32	3	0.0	14.05700016	16.08099937	-12.04599953
          96	1	32	4	0.0	11.88000011	14.85099983	-10.11699963
          97	1	33	1	0.0	13.56799984	18.75600052	-11.49100018
          98	1	33	3	0.0	15.45600033	19.04500008	-12.83600044
          99	1	33	4	0.0	13.02400017	20.04299927	-10.93799973
         100	1	34	1	0.0	17.26499939	19.04100037	-10.71399975
         101	1	34	3	0.0	18.73699951	18.41300011	-12.45699978
         102	1	34	4	0.0	17.93600082	18.90800095	-9.34399986
         103	1	35	1	0.0	18.07799911	15.79399967	-12.54800034
         104	1	35	3	0.0	16.22699928	15.24100018	-13.93400002
         105	1	35	4	0.0	18.16600037	14.41899967	-11.86400032
         106	1	36	1	0.0	17.30800056	16.1590004	-16.19499969
         107	1	36	3	0.0	18.44499969	14.51099968	-17.43400002
         108	1	36	4	0.0	17.86199951	17.21899986	-17.12299919
         109	1	37	1	0.0	16.40200043	12.65200043	-17.10000038
         110	1	37	3	0.0	17.61700058	10.63199997	-17.33099937
         111	1	37	5	0.0	14.61236782	11.1729317	-16.75404654
         112	1	38	1	0.0	19.35899925	11.03100014	-15.3039999
         113	1	38	3	0.0	17.43400002	10.27200031	-14.15499973
         114	1	38	4	0.0	20.37400055	11.63899994	-14.35400009
         115	1	39	1	0.0	18.09000015	7.73199987	-13.99199963
         116	1	39	3	0.0	19.45400047	7.86399984	-12.06000042
         117	1	39	4	0.0	18.1439991	6.33799982	-14.67700005
         118	1	40	1	0.0	17.24500084	7.16300011	-10.36400032
         119	1	40	3	0.0	16.875	4.92199993	-10.86900043
         120	1	40	4	0.0	15.92399979	7.60900021	-9.75
         121	1	41	1	0.0	18.10300064	3.898	-8.66499996
         122	1	41	3	0.0	16.52099991	2.60400009	-7.39799976
         123	1	41	4	0.0	19.55200005	3.46099997	-8.74199963
         124	1	42	1	0.0	17.53199959	3.21799994	-5.02600002
         125	1	42	3	0.0	17.1760006	4.60699987	-3.148
         126	1	42	4	0.0	18.64800072	2.546	-4.23199987
         127	1	43	1	0.0	15.14299965	6.01399994	-4.33599997
         128	1	43	3	0.0	14.3739996	6.58500004	-2.12299991
         129	1	43	4	0.0	14.1260004	6.58900023	-5.30700016
         130	1	44	1	0.0	13.3380003	4.12099981	-1.60399997
         131	1	44	3	0.0	14.14099979	4.76599979	0.54100001
         132	1	44	4	0.0	12.62199974	2.77600002	-1.71000004
         133	1	45	1	0.0	16.56100082	3.43899989	0.33700001
         134	1	45	3	0.0	17.18700027	5.25699997	1.80999994
         135	1	45	4	0.0	17.76099968	2.62400007	-0.161
         136	1	46	1	0.0	17.43700027	7.10200024	-0.233
         137	1	46	3	0.0	17.08600044	8.47299957	1.68900001
         138	1	46	4	0.0	17.43799973	7.84600019	-1.55799997
         139	1	47	1	0.0	14.35499954	8.51799965	1.38800001
         140	1	47	3	0.0	14.3210001	8.60700035	3.76799989
         141	1	47	4	0.0	12.95400047	8.5170002	0.81900001
         142	1	48	1	0.0	14.19400024	5.90600014	4.10500002
         143	1	48	3	0.0	15.1590004	6.72100019	6.12799978
         144	1	48	4	0.0	14.29800034	4.40199995	3.81900001
         145	1	49	1	0.0	17.77599907	6.68499994	5.22300005
         146	1	49	3	0.0	18.04400063	8.45100021	6.83400011
         147	1	49	4	0.0	19.02300072	6.53499985	4.38000011
         148	1	50	1	0.0	16.98399925	10.38199997	5.21500015
         149	1	50	3	0.0	15.85000038	11.7130003	6.90100002
         150	1	50	4	0.0	16.61499977	11.13700008	3.9460001
         151	1	51	1	0.0	14.03999996	9.71899986	7.546
         152	1	51	3	0.0	14.02299976	9.34399986	9.92599964
         153	1	51	4	0.0	12.72799969	9.28800011	6.88800001
         154	1	52	1	0.0	15.1590004	6.79400015	9.74300003
         155	1	52	3	0.0	16.12999916	7.33900023	11.90600014
         156	1	52	4	0.0	15.67199993	5.4460001	9.22299957
         157	1	53	1	0.0	18.22500038	8.74499989	10.90999985
         158	1	53	3	0.0	17.77700043	9.52600002	13.11800003
         159	1	53	4	0.0	19.31500053	9.36800003	10.03499985
         160	1	54	1	0.0	16.43499947	11.81000042	12.33300018
         161	1	54	3	0.0	15.10200024	11.88099957	14.31200027
         162	1	54	4	0.0	15.77700043	12.80099964	11.37800026
         163	1	55	1	0.0	13.83100033	9.46700001	13.82900047
         164	1	55	3	0.0	14.10700035	8.90299988	16.14699936
         165	1	55	4	0.0	13.02000046	8.43999958	13.04100037
         166	1	56	1	0.0	16.32699966	7.35300016	15.72500038
         167	1	56	3	0.0	16.97999954	8.36900043	17.79599953
         168	1	56	4	0.0	17.36800003	6.4369998	15.07999992
         169	1	57	1	0.0	18.25499916	10.4630003	16.61100006
         170	1	57	3	0.0	17.84799957	11.59599972	18.72400093
         171	1	57	4	0.0	18.68899918	11.47700024	15.55500031
         172	1	58	1	0.0	15.12699986	11.76099968	18.41300011
         173	1	58	3	0.0	14.18299961	11.32499981	20.51799965
         174	1	58	4	0.0	14.02099991	12.43400002	17.61800003
         175	1	59	1	0.0	13.53999996	8.71899986	20.06100082
         176	1	59	3	0.0	14.25500011	8.51599979	22.32299995
         177	1	59	4	0.0	12.99499989	7.42000008	19.49699974
         178	1	60	1	0.0	16.84199905	7.80900002	21.63800049
         179	1	60	3	0.0	16.94000053	8.86699963	23.7670002
         180	1	60	4	0.0	18.13999939	7.58500004	20.88500023
         181	1	61	1	0.0	17.11300087	11.39000034	22.74099922
         182	1	61	3	0.0	16.13800049	11.75199986	24.94400024
         183	1	61	4	0.0	17.10099983	12.58699989	21.8010006
         184	1	62	1	0.0	13.56400013	11.22700024	24.18400002
         185	1	62	3	0.0	13.11600018	10.36800003	26.33699989
         186	1	62	4	0.0	12.29599953	11.12800026	23.3579998
         187	1	63	1	0.0	14.09300041	7.88399982	25.91600037
         188	1	63	3	0.0	15.89299965	6.89799976	27.19799995
         189	1	63	4	0.0	13.89099979	6.52400017	25.25699997
         190	1	64	1	0.0	17.44000053	9.22599983	27.18400002
         191	1	64	3	0.0	19.06399918	7.61499977	27.91399956
         192	1	64	4	0.0	17.21199989	9.51599979	28.66300011
         193	1	65	1	0.0	19.44799995	6.47800016	25.43400002
         194	1	65	3	0.0	19.53800011	4.12900019	25.18000031
         195	1	65	5	0.0	19.44892443	5.9390879	23.39861558
         196	1	66	1	0.0	17.15500069	3.60700011	26.4470005
         197	1	66	3	0.0	15.5	3.2019999	24.71699905
         198	1	66	4	0.0	16.05900002	3.69000006	27.51799965
         199	1	67	1	0.0	16.93899918	1.19599998	23.49699974
         200	1	67	3	0.0	14.74600029	0.52700001	22.84300041
         201	1	67	4	0.0	17.96199989	0.132	23.11700058
         202	1	68	1	0.0	14.25300026	-0.88800001	25.13299942
         203	1	68	3	0.0	12.06799984	-0.421	24.29999924
         204	1	68	4	0.0	14.33399963	-1.57700002	26.5
         205	1	69	1	0.0	11.76799965	1.98300004	25.59600067
         206	1	69	3	0.0	10.50199986	2.53500009	23.65200043
         207	1	69	4	0.0	11.7869997	3.1170001	26.63400078
         208	1	70	1	0.0	12.69999981	3.3599999	22.20299911
         209	1	70	3	0.0	10.95600033	2.625	20.73200035
         210	1	70	4	0.0	14.10599995	3.55999994	21.7310009
         211	1	71	1	0.0	11.8739996	0.064	20.42300034
         212	1	71	3	0.0	9.64400005	-0.50099999	19.70599937
         213	1	71	4	0.0	12.63899994	-1.29200006	20.53000069
         214	1	72	1	0.0	8.5170002	-0.162	22.21199989
         215	1	72	3	0.0	6.5170002	0.74400002	21.29899979
         216	1	72	4	0.0	8.32800007	-0.315	23.72999954
         217	1	73	1	0.0	7.55600023	3.39499998	21.35899925
         218	1	73	3	0.0	6.3039999	3.71199989	19.32799911
         219	1	73	4	0.0	8.42500019	4.58799982	21.72800064
         220	1	74	1	0.0	8.37100029	2.83999991	17.70700073
         221	1	74	3	0.0	6.91900015	1.76800001	16.09499931
         222	1	74	4	0.0	9.81099987	2.69499993	17.20000076
         223	1	75	1	0.0	6.62900019	-0.53100002	17.50499916
         224	1	75	3	0.0	6.94700003	-2.34899998	15.94799995
         225	1	75	5	0.0	4.97108268	-0.95249873	16.42623189
         226	1	76	1	0.0	9.6420002	-2.52699995	16.37800026
         227	1	76	3	0.0	10.75599957	-2.82399988	18.49600029
         228	1	76	4	0.0	10.52999973	-1.83299994	15.34000015
         229	1	77	1	0.0	11.84500027	-5.27799988	17.76000023
         230	1	77	3	0.0	13.71700001	-3.83599997	17.38500023
         231	1	77	4	0.0	12.2510004	-6.51499987	16.95599937
         232	1	78	1	0.0	14.75899982	-4.1960001	19.9260006
         233	1	78	3	0.0	16.88800049	-3.90300012	18.84199905
         234	1	78	4	0.0	15.00599957	-4.56699991	21.39500046
         235	1	79	1	0.0	16.90399933	-6.36100006	17.66799927
         236	1	79	3	0.0	18.06399918	-5.02299976	16.07699966
         237	1	79	5	0.0	16.77444232	-6.96965031	16.50333737
         238	1	80	1	0.0	15.71199989	-4.48899984	14.63300037
         239	1	80	3	0.0	17.07500076	-2.57800007	14.12899971
         240	1	80	4	0.0	14.24800014	-4.375	14.20800018
         241	1	81	1	0.0	16.40500069	-1.17999995	16.39900017
         242	1	81	3	0.0	18.57500076	-0.223	16.04299927
         243	1	81	4	0.0	15.79100037	-0.713	17.7140007
         244	1	82	1	0.0	19.94400024	-2.24600005	17.1970005
         245	1	82	3	0.0	21.54400063	-1.48300004	15.5710001
         246	1	82	4	0.0	20.37100029	-3.48300004	17.95800018
         247	1	83	1	0.0	20.51600075	-3.17600012	13.57800007
         248	1	83	3	0.0	21.57299995	-1.46899998	12.26799965
         249	1	83	4	0.0	19.61499977	-4.13600016	12.79100037
         250	1	84	1	0.0	19.35499954	0.285	12.41399956
         251	1	84	3	0.0	20.86199951	2.12199998	12.23700047
         252	1	84	4	0.0	17.93700027	0.82300001	12.56400013
         253	1	85	1	0.0	21.53300095	2.14700007	14.86200047
         254	1	85	3	0.0	23.75399971	2.78399992	14.16899967
         255	1	85	4	0.0	21.44400024	2.02900004	16.37999916
         256	1	86	1	0.0	24.54299927	0.199	13.63099957
         257	1	86	3	0.0	25.75699997	1.04299998	11.76399994
         258	1	86	4	0.0	24.76799965	-1.31200004	13.77000046
         259	1	87	1	0.0	23.47699928	0.81599998	9.99100018
         260	1	87	3	0.0	24.35899925	2.57800007	8.68799973
         261	1	87	4	0.0	22.07600021	0.54500002	9.42500019
         262	1	88	1	0.0	23.78199959	4.53900003	10.58100033
         263	1	88	3	0.0	25.13500023	6.1420002	11.7130003
         264	1	88	4	0.0	22.49399948	5.33900023	10.85400009
         265	1	89	1	0.0	26.76799965	4.24100018	12.86699963
         266	1	89	3	0.0	27.33799934	5.94799995	14.39799976
         267	1	89	5	0.0	26.33281365	3.63609199	12.13619608
         268	1	90	1	0.0	24.94799995	5.93599987	15.73999977
         269	1	90	3	0.0	23.75699997	4.65199995	17.38400078
         270	1	90	4	0.0	23.70899963	6.85200024	15.56700039
         271	1	91	1	0.0	26.08099937	3.79200006	18.65800095
         272	1	91	3	0.0	27.88199997	2.96600008	20.02799988
         273	1	91	4	0.0	25.44400024	2.39299989	18.47100067
         274	2	92	1	0.0	35.14599991	20.22699928	-11.17399979
         275	2	92	3	0.0	32.92200089	20.91699982	-10.52099991
         276	2	92	4	0.0	35.25899887	19.42900085	-12.48499966
         277	2	93	1	0.0	32.20899963	18.57500076	-9.44200039
         278	2	93	3	0.0	33.15499878	18.35000038	-7.28100014
         279	2	93	4	0.0	31.76099968	17.14999962	-9.65600014
         280	2	94	1	0.0	31.41699982	19.98900032	-6.06599998
         281	2	94	3	0.0	29.59799957	18.44199944	-5.76399994
         282	2	94	4	0.0	30.87000084	21.39599991	-5.79799986
         283	2	95	1	0.0	30.47100067	17.46800041	-3.37299991
         284	2	95	3	0.0	28.88800049	19.02099991	-2.56200004
         285	2	95	4	0.0	31.25300026	17.15699959	-2.10899997
         286	2	96	1	0.0	26.79199982	17.2159996	-2.66499996
         287	2	96	3	0.0	26.44300079	14.92700005	-2.17400002
         288	2	96	4	0.0	25.78499985	17.18000031	-3.79099989
         289	2	97	1	0.0	26.26499939	15.34200001	0.51499999
         290	2	97	3	0.0	23.97400093	15.38500023	0.016
         291	2	97	4	0.0	26.69099998	15.80300045	1.91400003
         292	2	98	1	0.0	23.45499992	12.88199997	1.03299999
         293	2	98	3	0.0	21.19000053	13.70899963	1.15199995
         294	2	98	4	0.0	23.62000084	11.58399963	1.79100001
         295	2	99	1	0.0	21.63500023	15.25899982	3.38000011
         296	2	99	3	0.0	20.2140007	17.10000038	2.87899995
         297	2	99	4	0.0	22.18700027	15.81999969	4.69899988
         298	2	100	1	0.0	21.57299995	17.80500031	0.59899998
         299	2	100	3	0.0	20.75799942	18.2670002	-1.59500003
         300	2	100	4	0.0	22.89299965	18.52599907	0.373
         301	2	101	1	0.0	19.98500061	15.64599991	-2.10400009
         302	2	101	3	0.0	17.90999985	16.33300018	-3.10400009
         303	2	101	4	0.0	20.22299957	14.17199993	-2.32999992
         304	2	102	1	0.0	16.4279995	16.04800034	-0.78600001
         305	2	102	3	0.0	16.66799927	17.08499908	1.38
         306	2	102	4	0.0	15.6789999	14.83500004	-0.237
         307	2	103	1	0.0	15.92199993	19.56399918	0.53899997
         308	2	103	3	0.0	13.79199982	20.09000015	-0.44600001
         309	2	103	4	0.0	17.10400009	20.49500084	0.257
         310	2	104	1	0.0	13.27700043	22.07099915	1.48800004
         311	2	104	3	0.0	14.30300045	23.89900017	2.65100002
         312	2	104	4	0.0	12.54899979	21.47299957	2.67700005
         313	2	105	1	0.0	13.05900002	25.8409996	1.17799997
         314	2	105	3	0.0	11.52700043	26.03000069	2.96799994
         315	2	105	4	0.0	12.24100018	26.54599953	0.13600001
         316	2	106	1	0.0	13.30000019	27.57500076	4.52600002
         317	2	106	3	0.0	13.96199989	29.62299919	3.46600008
         318	2	106	4	0.0	14.26900005	26.97500038	5.57600021
         319	2	107	1	0.0	13.65799999	31.15500069	5.73600006
         320	2	107	3	0.0	14.1260004	30.83699989	8.04300022
         321	2	107	4	0.0	12.44999981	32.00699997	5.91599989
         322	2	108	1	0.0	16.59399986	32.0870018	7.92700005
         323	2	108	3	0.0	15.65100002	34.27500153	8.27799988
         324	2	108	4	0.0	18.02799988	31.90200043	7.42500019
         325	2	109	1	0.0	17.28000069	34.6609993	10.63899994
         326	2	109	3	0.0	16.95100021	37.00299835	10.52700043
         327	2	109	4	0.0	18.43600082	34.52199936	11.65100002
         328	2	110	1	0.0	17.86599922	37.30699921	7.8670001
         329	2	110	3	0.0	16.98800087	37.96099854	5.74700022
         330	2	110	4	0.0	19.24399948	37.51699829	7.204
         331	2	111	1	0.0	14.57999992	36.60699844	6.03700018
         332	2	111	3	0.0	14.86900043	37.25400162	3.71199989
         333	2	111	4	0.0	13.70199966	37.86700058	6.16300011
         334	2	112	1	0.0	16.48800087	35.02099991	3.17600012
         335	2	112	3	0.0	16.3920002	32.63299942	3.63800001
         336	2	112	4	0.0	17.96100044	35.29199982	3.44700003
         337	2	113	1	0.0	15.36800003	31.92000008	1.24600005
         338	2	113	3	0.0	17.37199974	31.24200058	0.226
         339	2	113	4	0.0	14.48900032	31.85099983	0.023
         340	2	114	1	0.0	17.55999947	28.88299942	1.61399996
         341	2	114	3	0.0	16.02000046	27.18400002	2.31599998
         342	2	114	4	0.0	18.5909996	29.21100044	2.71199989
         343	2	115	1	0.0	17.52000046	25.10199928	1.31200004
         344	2	115	3	0.0	19.10300064	24.7159996	3.00200009
         345	2	115	4	0.0	18.15200043	24.42700005	0.117
         346	2	116	1	0.0	17.64299965	22.81800079	4.329
         347	2	116	3	0.0	16.26300049	21.11400032	3.454
         348	2	116	4	0.0	17.10700035	23.41500092	5.63999987
         349	2	117	1	0.0	17.78199959	19.03300095	4.42700005
         350	2	117	3	0.0	15.81299973	19.14900017	5.75400019
         351	2	117	4	0.0	18.77599907	18.37000084	5.39499998
         352	2	118	1	0.0	14.67399979	16.98900032	4.55299997
         353	2	118	3	0.0	13.85499954	16.37400055	6.69999981
         354	2	118	4	0.0	14.25399971	15.90100002	3.55500007
         355	2	119	1	0.0	16.28800011	15.36600018	7.60900021
         356	2	119	3	0.0	15.01799965	15.85499954	9.61200047
         357	2	119	4	0.0	17.80400085	15.34599972	7.85200024
         358	2	120	1	0.0	15.52499962	18.62400055	9.45100021
         359	2	120	3	0.0	13.56499958	18.92399979	10.71199989
         360	2	120	4	0.0	16.03100014	20.01199913	9.09200001
         361	2	121	1	0.0	11.84500027	18.58699989	8.55900002
         362	2	121	3	0.0	10.4090004	17.67099953	10.27499962
         363	2	121	4	0.0	11.27000046	18.39500046	7.15500021
         364	2	122	1	0.0	11.54599953	15.16399956	10.10900021
         365	2	122	3	0.0	11.12199974	15.14500046	12.41300011
         366	2	122	4	0.0	12.19499969	13.88099957	9.58100033
         367	2	123	1	0.0	13.41800022	16.41500092	13.1789999
         368	2	123	3	0.0	11.84200001	17.02499962	14.87699986
         369	2	123	4	0.0	14.73999977	17.17399979	13.24499989
         370	2	124	1	0.0	11.00800037	19.30900002	13.6260004
         371	2	124	3	0.0	9.07499981	18.84300041	14.92000008
         372	2	124	4	0.0	10.88500023	20.51399994	12.70400047
         373	2	125	1	0.0	7.90899992	17.17700005	12.97099972
         374	2	125	3	0.0	6.63600016	16.33099937	14.88899994
         375	2	125	4	0.0	7.72700024	16.30400085	11.76399994
         376	2	126	1	0.0	8.93400002	14.83600044	15.82999992
         377	2	126	3	0.0	8.57600021	15.38500023	18.11899948
         378	2	126	4	0.0	10.08300018	13.84899998	15.69699955
         379	2	127	1	0.0	10.22500038	17.53700066	18.13699913
         380	2	127	3	0.0	8.55200005	17.92200089	19.79599953
         381	2	127	4	0.0	11.1079998	18.73200035	17.75699997
         382	2	128	1	0.0	6.75	18.96999931	17.89800072
         383	2	128	3	0.0	4.86800003	18.13599968	19.11899948
         384	2	128	4	0.0	6.26599979	19.70400047	16.64800072
         385	2	129	1	0.0	5.07399988	15.56599998	18.14999962
         386	2	129	3	0.0	4.28499985	15.14599991	20.35300064
         387	2	129	4	0.0	5.50500011	14.33300018	17.3560009
         388	2	130	1	0.0	6.80800009	14.89999962	21.4470005
         389	2	130	3	0.0	5.67000008	15.61100006	23.41699982
         390	2	130	4	0.0	8.32299995	14.77000046	21.65099907
         391	2	131	1	0.0	5.79300022	18.26199913	22.91600037
         392	2	131	3	0.0	3.88199997	17.97400093	24.3029995
         393	2	131	4	0.0	5.98099995	19.62000084	22.30999947
         394	2	132	1	0.0	2.10599995	17.37000084	22.20199966
         395	2	132	3	0.0	0.59899998	15.85999966	23.31900024
         396	2	132	4	0.0	1.53199995	17.11599922	20.81100082
         397	2	133	1	0.0	2.47399998	14.10099983	24.24600029
         398	2	133	3	0.0	3.43199992	14.48400021	26.43400002
         399	2	133	4	0.0	3.5769999	13.05700016	24.07600021
         400	2	134	1	0.0	1.13600004	15.20899963	27.59000015
         401	2	134	3	0.0	-0.93699998	14.56499958	28.58499908
         402	2	134	4	0.0	0.62400001	16.65699959	27.71199989
         403	2	135	1	0.0	1.954	12.47200012	28.08600044
         404	2	135	3	0.0	2.72900009	10.25	28.50399971
         405	2	135	5	0.0	3.10921631	12.12307189	25.96136618
         406	2	136	1	0.0	0.498	9.06799984	27.18700027
         407	2	136	3	0.0	2.4519999	8.82600021	25.83799934
         408	2	136	4	0.0	-0.90799999	8.89500046	26.59900093
         409	2	137	1	0.0	2.17600012	6.079	25.53899956
         410	2	137	3	0.0	0.77999997	6.08599997	23.53899956
         411	2	137	4	0.0	2.2019999	4.67700005	26.19099998
         412	2	138	1	0.0	3.00099993	5.48099995	21.86599922
         413	2	138	3	0.0	4.49499989	3.67400002	22.24699974
         414	2	138	4	0.0	3.93600011	6.47399998	21.18300056
         415	2	139	1	0.0	3.53399992	2.05299997	20.30599976
         416	2	139	3	0.0	4.0079999	0.685	18.41500092
         417	2	139	4	0.0	2.66199994	0.96799999	20.92399979
         418	2	140	1	0.0	3.48799992	2.6730001	16.54700089
         419	2	140	3	0.0	3.68300009	4.28299999	14.78600025
         420	2	140	4	0.0	2.04500008	2.47000003	16.0739994
         421	2	141	1	0.0	5.7670002	5.64499998	15.95100021
         422	2	141	3	0.0	6.49499989	6.35599995	13.81000042
         423	2	141	4	0.0	6.75099993	6.2329998	16.9640007
         424	2	142	1	0.0	7.73899984	3.98300004	13.15499973
         425	2	142	3	0.0	6.81799984	4.65799999	11.05000019
         426	2	142	4	0.0	8.55099964	2.69700003	13.25199986
         427	2	143	1	0.0	4.67199993	2.98099995	11.14400005
         428	2	143	3	0.0	3.78399992	4.73199987	9.77099991
         429	2	143	4	0.0	3.60400009	1.97399998	11.5539999
         430	2	144	1	0.0	3.18000007	6.39699984	11.88300037
         431	2	144	3	0.0	3.31399989	7.98600006	10.06999969
         432	2	144	4	0.0	3.07500005	7.03299999	13.25300026
         433	2	145	1	0.0	6.15100002	8.15600014	10.31099987
         434	2	145	3	0.0	6.08900023	8.34200001	7.9460001
         435	2	145	4	0.0	7.54899979	8.11600018	10.89900017
         436	2	146	1	0.0	6.77199984	5.64099979	7.546
         437	2	146	3	0.0	5.79799986	5.97800016	5.36000013
         438	2	146	4	0.0	6.93300009	4.12900019	7.796
         439	2	147	1	0.0	3.2420001	6.16499996	6.27799988
         440	2	147	3	0.0	2.90700006	7.88700008	4.67399979
         441	2	147	4	0.0	1.98199999	5.85099983	7.02099991
         442	2	148	1	0.0	3.64100003	9.93299961	6.32000017
         443	2	148	3	0.0	4.56899977	11.11699963	4.45300007
         444	2	148	4	0.0	4.01900005	10.79699993	7.52299976
         445	2	149	1	0.0	6.58500004	9.41300011	4.06099987
         446	2	149	3	0.0	6.67000008	9.01500034	1.66499996
         447	2	149	4	0.0	7.90899992	9.15799999	4.77199984
         448	2	150	1	0.0	5.77400017	6.42299986	1.82000005
         449	2	150	3	0.0	4.88100004	6.97700024	-0.32800001
         450	2	150	4	0.0	5.30200005	5.05100012	2.28699994
         451	2	151	1	0.0	2.58200002	8.17700005	0.63999999
         452	2	151	3	0.0	2.85899997	8.96100044	-1.63900006
         453	2	151	4	0.0	1.54100001	8.81000042	1.55599999
         454	2	152	1	0.0	4.15199995	11.29199982	-0.958
         455	2	152	3	0.0	5.17299986	11.17000008	-3.10299993
         456	2	152	4	0.0	4.86399984	12.31999969	-0.086
         457	2	153	1	0.0	7.05000019	9.22599983	-2.30599999
         458	2	153	3	0.0	6.89799976	8.56000042	-4.60599995
         459	2	153	4	0.0	7.94299984	8.3039999	-1.48000002
         460	2	154	1	0.0	4.80499983	6.80299997	-4.14799976
         461	2	154	3	0.0	4.0630002	7.56599998	-6.27600002
         462	2	154	4	0.0	3.81999993	5.82800007	-3.51799989
         463	2	155	1	0.0	2.57800007	9.64700031	-5.2420001
         464	2	155	3	0.0	3.24499989	10.17099953	-7.48699999
         465	2	155	4	0.0	2.02600002	10.70300007	-4.29099989
         466	2	156	1	0.0	5.40100002	11.60499954	-6.75500011
         467	2	156	3	0.0	6.01900005	10.98799992	-8.9659996
         468	2	156	4	0.0	6.47200012	12.33899975	-5.96500015
         469	2	157	1	0.0	7.12699986	8.63199997	-8.34899998
         470	2	157	3	0.0	6.54400015	8.03100014	-10.57400036
         471	2	157	4	0.0	7.76599979	7.42299986	-7.69700003
         472	2	158	1	0.0	3.88899994	7.48500013	-10.00599957
         473	2	158	3	0.0	3.41199994	8.42599964	-12.17099953
         474	2	158	4	0.0	2.59899998	6.98999977	-9.32699966
         475	2	159	1	0.0	3.33899999	11.01399994	-11.28100014
         476	2	159	3	0.0	4.26800013	11.22799969	-13.46000004
         477	2	159	4	0.0	3.25600004	12.32699966	-10.48900032
         478	2	160	1	0.0	6.87300014	10.93700027	-12.6079998
         479	2	160	3	0.0	7.28100014	10.16300011	-14.81700039
         480	2	160	4	0.0	8.10099983	10.77099991	-11.76599979
         481	2	161	1	0.0	6.4380002	7.59299994	-14.37199974
         482	2	161	3	0.0	4.78000021	6.53800011	-15.77400017
         483	2	161	4	0.0	6.79400015	6.22399998	-13.69699955
         484	2	162	1	0.0	2.9059999	8.55900002	-15.5369997
         485	2	162	3	0.0	1.66900003	6.67799997	-16.30200005
         486	2	162	4	0.0	2.96399999	8.93099976	-17.0170002
         487	2	163	1	0.0	1.41199994	5.54300022	-13.77299976
         488	2	163	3	0.0	1.58399999	3.15300012	-13.6960001
         489	2	163	5	0.0	0.18972482	4.85390502	-12.41663966
         490	2	164	1	0.0	4.03499985	3.04500008	-15.01099968
         491	2	164	3	0.0	5.796	2.71199989	-13.43799973
         492	2	164	4	0.0	5.07700014	3.35400009	-16.09700012
         493	2	165	1	0.0	4.49599981	0.66500002	-12.06599998
         494	2	165	3	0.0	6.61399984	-0.111	-11.25800037
         495	2	165	4	0.0	3.50699997	-0.405	-11.63000011
         496	2	166	1	0.0	7.34000015	-1.24300003	-13.67700005
         497	2	166	3	0.0	9.44499969	-0.59100002	-12.74499989
         498	2	166	4	0.0	7.32800007	-1.91700006	-15.06799984
         499	2	167	1	0.0	9.53800011	1.86000001	-14.02099991
         500	2	167	3	0.0	10.70600033	2.66599989	-12.07400036
         501	2	167	4	0.0	9.41600037	2.99399996	-15.07400036
         502	2	168	1	0.0	8.43099976	3.13000011	-10.63799953
         503	2	168	3	0.0	10.12899971	2.66000009	-8.96000004
         504	2	168	4	0.0	6.95699978	3.329	-10.21100044