The average twist in this sequence is 34.516981

################################################################
Pair coefficients for 3SPN.2 representation of B-DNA
pair_coeff	1	1	3spn2	0.239006	4.500000
pair_coeff	2	2	3spn2	0.239006	6.200000
pair_coeff	3	3	3spn2	0.239006	5.400000
pair_coeff	4	4	3spn2	0.239006	7.100000
pair_coeff	5	5	3spn2	0.239006	4.900000
pair_coeff	6	6	3spn2	0.239006	6.400000
pair_coeff	7	7	3spn2	0.239006	5.400000
pair_coeff	8	8	3spn2	0.239006	7.100000
pair_coeff	9	9	3spn2	0.239006	4.900000
pair_coeff	10	10	3spn2	0.239006	6.400000
pair_coeff	11	11	3spn2	0.239006	5.400000
pair_coeff	12	12	3spn2	0.239006	7.100000
pair_coeff	13	13	3spn2	0.239006	4.900000
pair_coeff	14	14	3spn2	0.239006	6.400000
################################################################
