LAMMPS protain data file

         213  atoms
         282  bonds
           0  angles
           0  dihedrals
           0  impropers

           5  atom types
           5  bond types
           0  angle types
           0  dihedral types
           0  improper types

-200.0	200.0	xlo xhi
-200.0	200.0	ylo yhi
-200.0	200.0	zlo zhi

Masses

           1	27.0
           2	14.0
           3	28.0
           4	60.0
           5	60.0

Atoms

           1	1	1	1	0.0	-46.32500076	-9.41600037	-14.1260004
           2	1	1	3	0.0	-44.64099884	-7.71199989	-14.02499962
           3	1	1	4	0.0	-46.08800125	-9.45400047	-15.64099979
           4	1	2	1	0.0	-43.77099991	-8.4119997	-11.48700047
           5	1	2	3	0.0	-44.29000092	-9.89599991	-9.67700005
           6	1	2	4	0.0	-44.18399811	-6.98699999	-11.08100033
           7	1	3	1	0.0	-41.68500137	-9.97200012	-8.69999981
           8	1	3	3	0.0	-40.22499847	-8.10000038	-8.33699989
           9	1	3	4	0.0	-41.14400101	-11.34200001	-9.13799953
          10	1	4	1	0.0	-38.89199829	-9.33500004	-6.17500019
          11	1	4	3	0.0	-38.51499939	-7.03999996	-5.5710001
          12	1	4	4	0.0	-37.70000076	-9.10000038	-7.11399984
          13	1	5	1	0.0	-40.74900055	-6.83199978	-3.98099995
          14	1	5	3	0.0	-42.00799942	-6.26000023	-2.02999997
          15	1	5	4	0.0	-41.41899872	-5.84000015	-4.93400002
          16	1	6	1	0.0	-43.1590004	-8.76299953	-1.72399998
          17	1	6	3	0.0	-43.06100082	-7.62300014	0.38100001
          18	1	6	4	0.0	-43.55599976	-10.23900032	-1.84000003
          19	1	7	1	0.0	-40.8429985	-9.0	1.26699996
          20	1	7	3	0.0	-38.5340004	-9.63399982	1.32200003
          21	1	7	4	0.0	-41.02799988	-10.16100025	2.24900007
          22	1	8	1	0.0	-37.66500092	-7.36600018	0.014
          23	1	8	3	0.0	-35.84899902	-7.36600018	1.579
          24	1	8	4	0.0	-37.59600067	-6.34700012	-1.13399994
          25	1	9	1	0.0	-36.93299866	-5.41200018	3.18600011
          26	1	9	3	0.0	-36.61399841	-6.5	5.29699993
          27	1	9	4	0.0	-37.36800003	-3.96600008	3.47000003
          28	1	10	1	0.0	-38.95299911	-8.08399963	5.00500011
          29	1	10	3	0.0	-37.9620018	-8.02000046	7.19899988
          30	1	10	4	0.0	-38.09500122	-9.32999992	4.75400019
          31	1	11	1	0.0	-40.16500092	-6.7249999	8.35299969
          32	1	11	3	0.0	-38.35599899	-6.21199989	9.85400009
          33	1	11	4	0.0	-40.31800079	-7.99300003	9.19699955
          34	1	12	1	0.0	-37.65599823	-3.88400006	8.52000046
          35	1	12	3	0.0	-37.88899994	-1.676	9.44900036
          36	1	12	4	0.0	-37.14300156	-3.16199994	7.28399992
          37	1	13	1	0.0	-39.16600037	-2.5539999	11.74600029
          38	1	13	3	0.0	-37.83000183	-2.8440001	13.71700001
          39	1	13	4	0.0	-40.27399826	-3.23900008	12.56599998
          40	1	14	1	0.0	-35.84999847	-1.05999994	12.8210001
          41	1	14	3	0.0	-34.87599945	-3.01999998	13.81799984
          42	1	14	4	0.0	-36.05899811	-0.54799998	14.25300026
          43	1	15	1	0.0	-33.54399872	-3.82999992	11.49199963
          44	1	15	3	0.0	-31.1439991	-3.74000001	11.54399967
          45	1	15	4	0.0	-33.36700058	-3.93000007	9.97399998
          46	1	16	1	0.0	-31.05900002	-3.39700007	14.35700035
          47	1	16	3	0.0	-30.44400024	-1.45799994	13.07800007
          48	1	16	4	0.0	-30.00900078	-4.47700024	14.08100033
          49	1	17	1	0.0	-29.36100006	-0.124	15.25800037
          50	1	17	3	0.0	-27.25099945	-0.91299999	14.40499973
          51	1	17	4	0.0	-28.92700005	0.338	16.66699982
          52	1	18	1	0.0	-27.17499924	1.005	12.3760004
          53	1	18	3	0.0	-28.12000084	3.19400001	12.1260004
          54	1	18	4	0.0	-27.20899963	-0.19599999	11.41800022
          55	1	19	1	0.0	-27.0359993	3.6329999	9.62100029
          56	1	19	3	0.0	-28.82699966	3.00399995	8.14500046
          57	1	19	4	0.0	-26.07699966	3.64299989	8.43099976
          58	1	20	1	0.0	-30.74600029	4.46799994	9.5340004
          59	1	20	3	0.0	-32.18600082	5.21899986	7.76599979
          60	1	20	4	0.0	-31.49099922	5.12599993	10.69999981
          61	1	21	1	0.0	-30.18700027	6.53900003	6.40199995
          62	1	21	3	0.0	-30.7670002	5.9369998	4.14599991
          63	1	21	4	0.0	-29.03499985	7.53299999	6.21299982
          64	1	22	1	0.0	-29.74099922	3.41100001	4.3039999
          65	1	22	3	0.0	-29.38400078	1.35000002	5.51100016
          66	1	22	4	0.0	-28.36300087	3.40400004	3.60100007
          67	1	23	1	0.0	-31.72599983	0.20200001	4.6079998
          68	1	23	3	0.0	-30.77700043	-1.86399996	3.82999992
          69	1	23	4	0.0	-33.26900101	0.111	4.64099979
          70	1	24	1	0.0	-30.69799995	-1.02699995	1.15799999
          71	1	24	3	0.0	-29.03300095	-2.75099993	1.09899998
          72	1	24	4	0.0	-30.76199913	-0.18000001	-0.11
          73	1	25	1	0.0	-26.98800087	-1.13699996	1.99100006
          74	1	25	3	0.0	-26.25799942	-3.22099996	2.91100001
          75	1	25	4	0.0	-26.08499908	0.049	2.33699989
          76	1	26	1	0.0	-27.62000084	-2.89499998	5.29699993
          77	1	26	3	0.0	-27.69000053	-5.29099989	5.20599985
          78	1	26	4	0.0	-28.40200043	-2.33100009	6.48600006
          79	1	27	1	0.0	-29.87000084	-5.38000011	3.50200009
          80	1	27	3	0.0	-28.6970005	-7.32600021	2.75
          81	1	27	4	0.0	-31.12000084	-5.0630002	2.671
          82	1	28	1	0.0	-27.14800072	-5.954	0.91299999
          83	1	28	3	0.0	-25.65200043	-7.77699995	1.37600005
          84	1	28	4	0.0	-26.53000069	-4.87300014	0.017
          85	1	29	1	0.0	-24.6079998	-6.63500023	3.66499996
          86	1	29	3	0.0	-24.43300056	-8.88899994	4.45200014
          87	1	29	4	0.0	-24.12199974	-5.64099979	4.72200012
          88	1	30	1	0.0	-27.00200081	-8.96000004	5.5
          89	1	30	3	0.0	-26.87700081	-11.25699997	4.83699989
          90	1	30	4	0.0	-28.31599998	-8.54899979	6.17999983
          91	1	31	1	0.0	-28.19799995	-10.86499977	2.421
          92	1	31	3	0.0	-26.9279995	-12.84300041	1.93400002
          93	1	31	4	0.0	-28.90299988	-10.25599957	1.20200002
          94	1	32	1	0.0	-24.6760006	-11.44499969	1.13800001
          95	1	32	3	0.0	-23.47999954	-13.33300018	2.01399994
          96	1	32	4	0.0	-23.75799942	-10.36200047	0.56800002
          97	1	33	1	0.0	-23.19599915	-12.26500034	4.54099989
          98	1	33	3	0.0	-23.26099968	-14.56999969	5.16599989
          99	1	33	4	0.0	-23.0720005	-11.29899979	5.72399998
         100	1	34	1	0.0	-26.00499916	-14.6260004	5.54799986
         101	1	34	3	0.0	-25.91500092	-16.95199966	4.93400002
         102	1	34	4	0.0	-27.46899986	-14.22399998	5.73199987
         103	1	35	1	0.0	-25.63400078	-16.45499992	2.2349999
         104	1	35	3	0.0	-24.09399986	-18.29500008	2.15400004
         105	1	35	4	0.0	-25.89500046	-15.84700012	0.866
         106	1	36	1	0.0	-21.86199951	-16.68799973	2.477
         107	1	36	3	0.0	-20.78700066	-18.40699959	3.77600002
         108	1	36	4	0.0	-20.93000031	-15.49199963	2.25900006
         109	1	37	1	0.0	-21.79400063	-17.5170002	6.20100021
         110	1	37	3	0.0	-22.20400047	-19.63599968	7.26900005
         111	1	37	4	0.0	-22.25300026	-16.58799934	7.35200024
         112	1	38	1	0.0	-23.97699928	-20.51000023	5.33699989
         113	1	38	3	0.0	-23.13100052	-22.75300026	5.12699986
         114	1	38	4	0.0	-25.18700027	-20.48699951	4.41599989
         115	1	39	1	0.0	-20.83600044	-21.9489994	3.78299999
         116	1	39	3	0.0	-18.9489994	-22.90699959	4.93400002
         117	1	39	4	0.0	-20.2140007	-21.43600082	2.46799994
         118	1	40	1	0.0	-18.81800079	-20.88699913	6.82600021
         119	1	40	3	0.0	-20.21699905	-22.13199997	8.32699966
         120	1	40	4	0.0	-18.88100052	-19.49200058	7.45300007
         121	1	41	1	0.0	-18.08399963	-23.68799973	9.32499981
         122	1	41	3	0.0	-19.48399925	-25.59399986	9.74699974
         123	1	41	4	0.0	-18.5890007	-23.09499931	10.64500046
         124	1	42	1	0.0	-20.0510006	-26.03100014	7.08599997
         125	1	42	3	0.0	-19.14800072	-25.72299957	4.89099979
         126	1	42	4	0.0	-21.4829998	-25.5359993	6.94099998
         127	1	43	1	0.0	-19.06399918	-28.40800095	4.30100012
         128	1	43	3	0.0	-19.90699959	-30.61899948	3.84899998
         129	1	43	4	0.0	-17.6970005	-29.08600044	4.46199989
         130	1	44	1	0.0	-22.34499931	-29.72200012	2.81599998
         131	1	44	3	0.0	-21.94099998	-31.02400017	0.838
         132	1	44	4	0.0	-23.61199951	-28.91600037	3.15499997
         133	1	45	1	0.0	-22.23800087	-28.87000084	-0.89600003
         134	1	45	3	0.0	-22.11700058	-26.76499939	-2.03900003
         135	1	45	4	0.0	-23.59399986	-28.96699905	-1.60399997
         136	1	46	1	0.0	-19.42399979	-26.33600044	-1.53699994
         137	1	46	3	0.0	-18.27799988	-27.28499985	-3.41499996
         138	1	46	4	0.0	-18.13199997	-26.41200066	-0.70899999
         139	1	47	1	0.0	-19.68400002	-25.77599907	-5.28299999
         140	1	47	3	0.0	-18.29100037	-24.08600044	-6.2750001
         141	1	47	4	0.0	-20.84700012	-25.06500053	-5.96000004
         142	1	48	1	0.0	-15.97500038	-25.59799957	-6.01999998
         143	1	48	3	0.0	-15.19999981	-27.60499954	-7.09399986
         144	1	48	4	0.0	-14.90699959	-25.77799988	-4.92399979
         145	1	49	1	0.0	-15.58699989	-26.63999939	-9.66600037
         146	1	49	3	0.0	-13.60299969	-25.52499962	-10.43000031
         147	1	49	4	0.0	-16.49099922	-25.88899994	-10.64099979
         148	1	50	1	0.0	-12.10999966	-27.80999947	-10.70300007
         149	1	50	3	0.0	-11.75399971	-27.27799988	-13.01200008
         150	1	50	4	0.0	-11.20100021	-28.74399948	-9.87199974
         151	1	51	1	0.0	-12.21899986	-29.80999947	-13.96800041
         152	1	51	3	0.0	-13.80900002	-29.0189991	-15.58399963
         153	1	51	4	0.0	-11.57199955	-31.19499969	-14.04800034
         154	1	52	1	0.0	-15.57999992	-31.10400009	-15.13500023
         155	1	52	3	0.0	-17.58600044	-29.875	-15.53199959
         156	1	52	4	0.0	-15.97200012	-32.57099915	-14.98900032
         157	1	53	1	0.0	-17.81800079	-28.97599983	-12.97900009
         158	1	53	3	0.0	-18.50099945	-26.82299995	-13.7869997
         159	1	53	4	0.0	-17.93499947	-29.01300049	-11.44400024
         160	1	54	1	0.0	-15.94299984	-25.81999969	-13.97700024
         161	1	54	3	0.0	-16.78000069	-24.5529995	-15.81999969
         162	1	54	4	0.0	-14.45699978	-25.52499962	-13.7510004
         163	1	55	1	0.0	-16.39800072	-26.55200005	-17.66600037
         164	1	55	3	0.0	-18.39599991	-25.97500038	-18.86599922
         165	1	55	4	0.0	-15.80799961	-27.74200058	-18.42700005
         166	1	56	1	0.0	-20.10899925	-26.88800049	-16.87800026
         167	1	56	3	0.0	-21.45899963	-24.91200066	-17.09000015
         168	1	56	4	0.0	-20.72200012	-27.93000031	-15.93700027
         169	1	57	1	0.0	-20.16600037	-23.55699921	-15.04500008
         170	1	57	3	0.0	-20.37700081	-21.55800056	-16.36300087
         171	1	57	4	0.0	-19.41200066	-23.23399925	-13.7510004
         172	1	58	1	0.0	-18.19199944	-22.18300056	-17.98200035
         173	1	58	3	0.0	-19.35899925	-20.98999977	-19.69599915
         174	1	58	4	0.0	-16.95100021	-22.83499908	-18.56699944
         175	1	59	1	0.0	-21.17499924	-23.04400063	-20.17499924
         176	1	59	3	0.0	-22.64500046	-21.21199989	-20.68000031
         177	1	59	4	0.0	-21.90600014	-24.38899994	-20.1970005
         178	1	60	1	0.0	-23.31299973	-20.77000046	-18.02099991
         179	1	60	3	0.0	-23.42099953	-18.50600052	-18.79700089
         180	1	60	4	0.0	-23.56800079	-20.97599983	-16.52499962
         181	1	61	1	0.0	-20.80999947	-17.9090004	-18.11499977
         182	1	61	3	0.0	-20.79599953	-16.38599968	-19.97100067
         183	1	61	4	0.0	-19.41500092	-17.92499924	-17.48600006
         184	1	62	1	0.0	-20.49200058	-18.38800049	-21.87199974
         185	1	62	3	0.0	-21.75799942	-16.80800056	-23.15500069
         186	1	62	4	0.0	-20.17700005	-19.70499992	-22.55999947
         187	1	63	1	0.0	-24.20499992	-17.90800095	-22.55699921
         188	1	63	3	0.0	-25.49500084	-15.89799976	-22.28199959
         189	1	63	4	0.0	-25.28300095	-19.00200081	-22.46299934
         190	1	64	1	0.0	-24.25499916	-15.19299984	-19.89699936
         191	1	64	3	0.0	-23.78800011	-12.85400009	-20.22999954
         192	1	64	4	0.0	-23.8409996	-15.40799999	-18.43799973
         193	1	65	1	0.0	-21.71299934	-13.33500004	-22.0170002
         194	1	65	3	0.0	-22.37199974	-11.41699982	-23.30800056
         195	1	65	4	0.0	-20.51300049	-13.98999977	-22.70400047
         196	1	66	1	0.0	-24.51499939	-12.71000004	-24.49799919
         197	1	66	3	0.0	-26.38800049	-13.02400017	-23.04899979
         198	1	66	4	0.0	-24.90999985	-13.71700001	-25.57699966
         199	1	67	1	0.0	-27.27099991	-10.35200024	-23.30200005
         200	1	67	3	0.0	-27.27499962	-11.32800007	-21.09499931
         201	1	67	4	0.0	-28.55500031	-11.0880003	-23.6989994
         202	1	68	1	0.0	-26.6779995	-8.96000004	-19.81500053
         203	1	68	3	0.0	-28.40299988	-9.64999962	-18.29500008
         204	1	68	4	0.0	-25.79500008	-7.7420001	-19.53199959
         205	1	69	1	0.0	-30.03700066	-7.48500013	-18.82500076
         206	1	69	3	0.0	-30.86499977	-5.37900019	-19.65299988
         207	1	69	4	0.0	-29.81900024	-6.81799984	-17.46199989
         208	1	70	1	0.0	-32.59199905	-6.51000023	-21.45700073
         209	1	70	3	0.0	-34.88499832	-6.88700008	-20.8409996
         210	1	70	4	0.0	-32.88899994	-7.30900002	-22.72699928
         211	1	71	1	0.0	-34.9980011	-4.6789999	-19.17499924
         212	1	71	3	0.0	-36.06499863	-2.55900002	-19.38699913
         213	1	71	4	0.0	-35.00899887	-5.3130002	-17.77700043

Bond Coeffs

           1	200.0	3.77
           2	200.0	2.41
           3	200.0	2.50
           4	200.0	1.54
           5	200.0	1.54
Bonds

           1	2	1	2
           2	4	1	3
           3	1	1	4
           4	3	2	4
           5	2	4	5
           6	4	4	6
           7	1	4	7
           8	3	5	7
           9	2	7	8
          10	4	7	9
          11	1	7	10
          12	3	8	10
          13	2	10	11
          14	4	10	12
          15	1	10	13
          16	3	11	13
          17	2	13	14
          18	4	13	15
          19	1	13	16
          20	3	14	16
          21	2	16	17
          22	4	16	18
          23	1	16	19
          24	3	17	19
          25	2	19	20
          26	4	19	21
          27	1	19	22
          28	3	20	22
          29	2	22	23
          30	4	22	24
          31	1	22	25
          32	3	23	25
          33	2	25	26
          34	4	25	27
          35	1	25	28
          36	3	26	28
          37	2	28	29
          38	4	28	30
          39	1	28	31
          40	3	29	31
          41	2	31	32
          42	4	31	33
          43	1	31	34
          44	3	32	34
          45	2	34	35
          46	4	34	36
          47	1	34	37
          48	3	35	37
          49	2	37	38
          50	4	37	39
          51	1	37	40
          52	3	38	40
          53	2	40	41
          54	4	40	42
          55	1	40	43
          56	3	41	43
          57	2	43	44
          58	4	43	45
          59	1	43	46
          60	3	44	46
          61	2	46	47
          62	4	46	48
          63	1	46	49
          64	3	47	49
          65	2	49	50
          66	4	49	51
          67	1	49	52
          68	3	50	52
          69	2	52	53
          70	4	52	54
          71	1	52	55
          72	3	53	55
          73	2	55	56
          74	4	55	57
          75	1	55	58
          76	3	56	58
          77	2	58	59
          78	4	58	60
          79	1	58	61
          80	3	59	61
          81	2	61	62
          82	4	61	63
          83	1	61	64
          84	3	62	64
          85	2	64	65
          86	4	64	66
          87	1	64	67
          88	3	65	67
          89	2	67	68
          90	4	67	69
          91	1	67	70
          92	3	68	70
          93	2	70	71
          94	4	70	72
          95	1	70	73
          96	3	71	73
          97	2	73	74
          98	4	73	75
          99	1	73	76
         100	3	74	76
         101	2	76	77
         102	4	76	78
         103	1	76	79
         104	3	77	79
         105	2	79	80
         106	4	79	81
         107	1	79	82
         108	3	80	82
         109	2	82	83
         110	4	82	84
         111	1	82	85
         112	3	83	85
         113	2	85	86
         114	4	85	87
         115	1	85	88
         116	3	86	88
         117	2	88	89
         118	4	88	90
         119	1	88	91
         120	3	89	91
         121	2	91	92
         122	4	91	93
         123	1	91	94
         124	3	92	94
         125	2	94	95
         126	4	94	96
         127	1	94	97
         128	3	95	97
         129	2	97	98
         130	4	97	99
         131	1	97	100
         132	3	98	100
         133	2	100	101
         134	4	100	102
         135	1	100	103
         136	3	101	103
         137	2	103	104
         138	4	103	105
         139	1	103	106
         140	3	104	106
         141	2	106	107
         142	4	106	108
         143	1	106	109
         144	3	107	109
         145	2	109	110
         146	4	109	111
         147	1	109	112
         148	3	110	112
         149	2	112	113
         150	4	112	114
         151	1	112	115
         152	3	113	115
         153	2	115	116
         154	4	115	117
         155	1	115	118
         156	3	116	118
         157	2	118	119
         158	4	118	120
         159	1	118	121
         160	3	119	121
         161	2	121	122
         162	4	121	123
         163	1	121	124
         164	3	122	124
         165	2	124	125
         166	4	124	126
         167	1	124	127
         168	3	125	127
         169	2	127	128
         170	4	127	129
         171	1	127	130
         172	3	128	130
         173	2	130	131
         174	4	130	132
         175	1	130	133
         176	3	131	133
         177	2	133	134
         178	4	133	135
         179	1	133	136
         180	3	134	136
         181	2	136	137
         182	4	136	138
         183	1	136	139
         184	3	137	139
         185	2	139	140
         186	4	139	141
         187	1	139	142
         188	3	140	142
         189	2	142	143
         190	4	142	144
         191	1	142	145
         192	3	143	145
         193	2	145	146
         194	4	145	147
         195	1	145	148
         196	3	146	148
         197	2	148	149
         198	4	148	150
         199	1	148	151
         200	3	149	151
         201	2	151	152
         202	4	151	153
         203	1	151	154
         204	3	152	154
         205	2	154	155
         206	4	154	156
         207	1	154	157
         208	3	155	157
         209	2	157	158
         210	4	157	159
         211	1	157	160
         212	3	158	160
         213	2	160	161
         214	4	160	162
         215	1	160	163
         216	3	161	163
         217	2	163	164
         218	4	163	165
         219	1	163	166
         220	3	164	166
         221	2	166	167
         222	4	166	168
         223	1	166	169
         224	3	167	169
         225	2	169	170
         226	4	169	171
         227	1	169	172
         228	3	170	172
         229	2	172	173
         230	4	172	174
         231	1	172	175
         232	3	173	175
         233	2	175	176
         234	4	175	177
         235	1	175	178
         236	3	176	178
         237	2	178	179
         238	4	178	180
         239	1	178	181
         240	3	179	181
         241	2	181	182
         242	4	181	183
         243	1	181	184
         244	3	182	184
         245	2	184	185
         246	4	184	186
         247	1	184	187
         248	3	185	187
         249	2	187	188
         250	4	187	189
         251	1	187	190
         252	3	188	190
         253	2	190	191
         254	4	190	192
         255	1	190	193
         256	3	191	193
         257	2	193	194
         258	4	193	195
         259	1	193	196
         260	3	194	196
         261	2	196	197
         262	4	196	198
         263	1	196	199
         264	3	197	199
         265	2	199	200
         266	4	199	201
         267	1	199	202
         268	3	200	202
         269	2	202	203
         270	4	202	204
         271	1	202	205
         272	3	203	205
         273	2	205	206
         274	4	205	207
         275	1	205	208
         276	3	206	208
         277	2	208	209
         278	4	208	210
         279	1	208	211
         280	3	209	211
         281	2	211	212
         282	4	211	213

