LAMMPS protain data file

         189  atoms
         250  bonds
           0  angles
           0  dihedrals
           0  impropers

           5  atom types
           5  bond types
           0  angle types
           0  dihedral types
           0  improper types

-50.0	50.0	xlo xhi
-50.0	50.0	ylo yhi
-50.0	50.0	zlo zhi

Masses

           1	27.0
           2	14.0
           3	28.0
           4	60.0
           5	60.0

Atoms

           1	1	1	1.438	0.0	0.0
           2	1	3	1.15772348	-2.34082442	-0.03468558
           3	1	4	1.94619882	0.71662627	-1.24406983
           4	2	1	3.77119603	-3.03897419	0.03930841
           5	2	3	2.99323938	-4.9238469	1.22305471
           6	2	4	3.25891413	-3.75950478	-1.20082543
           7	3	1	2.6592286	-3.74707229	3.63692408
           8	3	3	0.87685314	-5.2835525	3.78383643
           9	3	4	3.5292545	-4.9676963	3.90648103
          10	4	1	-1.03377412	-3.76403383	2.61606357
          11	4	3	-1.83169516	-5.72464443	1.57753333
          12	4	4	-1.56832412	-4.39409038	3.89544391
          13	5	1	-0.34419738	-5.59321696	-0.6792795
          14	5	3	-0.26665465	-7.94858662	-0.60553763
          15	5	4	-1.78703647	-5.7745354	-1.13190295
          16	6	1	1.73377811	-8.20801159	1.19837326
          17	6	3	0.4667415	-10.03268812	1.98855727
          18	6	4	2.00204558	-9.12031714	0.0087262
          19	7	1	-0.87182028	-8.74400375	3.95595961
          20	7	3	-2.37105094	-10.43432015	3.28190111
          21	7	4	-0.20794673	-9.88294663	4.71859322
          22	8	1	-3.74599372	-9.01079246	1.43630411
          23	8	3	-4.02531154	-11.2523945	0.76071631
          24	8	4	-4.92789221	-9.31232	2.34829429
          25	9	1	-1.68327747	-11.54649326	-0.5627297
          26	9	3	-1.58601105	-13.72179731	0.34159797
          27	9	4	-2.84039901	-12.10291978	-1.38186844
          28	10	1	-0.12046392	-13.15383239	2.54448573
          29	10	3	-1.36443913	-14.90970095	3.50816009
          30	10	4	0.67618183	-14.26343134	1.87093193
          31	11	1	-3.6191291	-13.51988482	4.06305762
          32	11	3	-4.62039322	-15.60607631	3.61084945
          33	11	4	-3.23001513	-14.16789216	5.38525496
          34	12	1	-4.9006238	-15.32241295	0.93425966
          35	12	3	-4.56710338	-17.6510671	0.77503979
          36	12	4	-6.31235131	-15.64963112	1.40274948
          37	13	1	-1.90552191	-17.68933421	1.26252996
          38	13	3	-1.33726916	-19.28551269	2.90220068
          39	13	4	-2.52947529	-18.74927291	0.36434227
          40	14	1	-2.27428439	-17.95890989	5.06674554
          41	14	3	-0.39085536	-18.73544339	6.25371976
          42	14	5	-2.94620943	-17.35523537	5.71702457
          43	15	1	1.26176473	-16.65214212	5.75189342
          44	15	3	0.74503537	-14.51653177	6.60709877
          45	15	4	1.67324388	-17.97170933	6.39139033
          46	16	1	2.19087746	-14.65988453	8.89010505
          47	16	3	4.24195583	-14.20289659	7.82077978
          48	16	4	0.97694083	-13.74933695	8.7605289
          49	17	1	4.89355269	-11.96035481	9.18809646
          50	17	3	7.10222491	-12.69759297	8.81733516
          51	17	4	4.9432885	-11.49608132	7.73843944
          52	18	1	7.21962953	-14.55398578	10.78282464
          53	18	3	8.59825208	-15.7119726	9.26043068
          54	18	4	8.43831961	-13.66327744	10.9852157
          55	19	1	6.65201922	-16.97832044	7.87058616
          56	19	3	8.0726333	-16.66490064	6.01509683
          57	19	4	7.66266261	-18.04086846	8.28182894
          58	20	1	7.21762377	-14.20132104	5.29200538
          59	20	3	9.46956141	-13.80575932	4.7162235
          60	20	4	7.20405865	-15.07577575	4.04513973
          61	21	1	10.33184291	-12.93142197	7.12768194
          62	21	3	12.25448562	-13.91185724	6.17825649
          63	21	4	10.70361423	-11.75585975	6.23360781
          64	22	1	11.91772511	-16.41933991	7.13859499
          65	22	3	12.94047953	-17.10991526	5.12954146
          66	22	4	13.32434008	-16.03738563	7.58026709
          67	23	1	10.78313886	-16.89535814	3.5099818
          68	23	3	12.26524078	-16.14923092	1.83490417
          69	23	4	11.42708761	-18.2567638	3.28319194
          70	24	1	12.25310205	-13.51634655	2.46012376
          71	24	3	14.57991275	-13.26429055	2.17440233
          72	24	4	12.2187145	-13.80734132	0.9655775
          73	25	1	15.34035038	-13.848129	4.70501377
          74	25	3	16.83996553	-12.05038034	4.98514085
          75	25	5	15.44426151	-14.57049095	5.54534983
          76	26	1	15.17344881	-10.36317961	6.28867557
          77	26	3	14.57610255	-11.22458793	8.40063441
          78	26	4	16.65234797	-10.12365495	6.01478833
          79	27	1	14.8103277	-8.93622597	9.82599932
          80	27	3	12.6841946	-8.14347463	9.18543678
          81	27	4	15.18215898	-10.24615969	10.50816069
          82	28	1	11.36874455	-8.67525739	11.48976428
          83	28	3	10.15690232	-6.77184098	10.80590658
          84	28	4	10.53340093	-9.39382517	10.4383888
          85	29	1	11.77757174	-4.88476274	11.87150187
          86	29	3	10.94630875	-3.61816743	10.06485991
          87	29	4	10.45907633	-4.53777121	12.55024757
          88	30	1	12.47174303	-4.69835328	8.10798081
          89	30	3	10.57335187	-4.34073789	6.75615271
          90	30	4	12.66349536	-3.19191733	7.99217594
          91	31	1	9.24622677	-6.6228535	7.35097567
          92	31	3	7.33104549	-5.26577124	7.12820811
          93	31	4	9.29862762	-6.5383412	5.83122542
          94	32	1	7.1989753	-4.37090425	9.67867818
          95	32	3	6.3052902	-2.49833547	8.55884332
          96	32	4	5.81826888	-4.96941719	9.44424046
          97	33	1	8.63245283	-1.21969591	8.03680695
          98	33	3	7.63615225	-0.49942696	6.02488876
          99	33	4	7.73408061	-0.19267658	8.71333311
         100	34	1	8.01919017	-2.75560496	4.58056545
         101	34	3	5.88187489	-2.44473514	3.6348063
         102	34	4	8.4017303	-1.52126973	3.77458245
         103	35	1	4.45428667	-3.86313082	5.44402506
         104	35	3	2.60771392	-2.40552717	5.60143445
         105	35	4	4.03478161	-4.20806375	4.0211527
         106	36	1	3.81095459	-0.41342916	6.98233429
         107	36	3	3.945818	1.85266041	6.34525744
         108	36	4	2.30081746	-0.60047749	6.91886947
         109	37	1	5.27895268	1.51490158	4.01463566
         110	37	3	6.3976717	3.55949587	4.37145345
         111	37	5	5.74514647	1.09225242	3.09659424
         112	38	1	7.98743068	2.77276306	6.41518652
         113	38	3	9.99564207	3.78232851	5.70308991
         114	38	4	7.4127455	4.17829129	6.5324739
         115	39	1	10.84272516	1.81851177	4.04507874
         116	39	3	9.98140999	0.39771568	2.37214968
         117	39	4	11.41146017	3.23084789	4.08217561
         118	40	1	10.70393158	1.86521648	0.21633638
         119	40	3	11.97629118	0.80382846	-1.46109425
         120	40	4	9.74881885	0.67921177	0.19023105
         121	41	1	14.43363846	1.53852098	-0.59807731
         122	41	3	16.41872181	1.78576133	0.64993443
         123	41	4	14.18003187	0.38775323	-1.56293289
         124	42	1	16.21166062	-0.46049997	2.14477985
         125	42	3	17.60777114	-0.85710165	0.28660884
         126	42	4	16.35873161	0.63442587	3.19312929
         127	43	1	19.96855501	-0.98332586	1.60338292
         128	43	3	20.76263568	-2.73437086	0.23865061
         129	43	4	20.10214656	-0.08236719	0.38274547
         130	44	1	19.44359335	-4.77478486	1.43027348
         131	44	3	17.83845274	-6.1631561	0.40306078
         132	44	4	20.80423589	-5.02852728	0.79482429
         133	45	1	16.91793579	-4.39354844	-1.42567219
         134	45	3	16.60212534	-6.4178138	-2.59264712
         135	45	4	15.64762435	-4.80602793	-0.6937579
         136	46	1	19.05547877	-6.59432119	-3.72093302
         137	46	3	18.64379734	-8.90607648	-3.50757206
         138	46	4	18.11986396	-6.68283476	-4.91939841
         139	47	1	19.38132163	-9.18748106	-0.91913693
         140	47	3	17.62824219	-10.71862396	-0.54293103
         141	47	4	20.02037057	-10.28451194	-1.76036739
         142	48	1	15.63852021	-8.92902624	-0.14109347
         143	48	3	14.28595619	-10.48739214	-1.28183152
         144	48	4	15.60384973	-9.95453717	0.9843639
         145	49	1	14.61604302	-9.51744907	-3.78650318
         146	49	3	14.34199591	-11.80128605	-4.30438719
         147	49	4	13.10264689	-9.53460004	-3.61660024
         148	50	1	16.91857557	-12.57221671	-4.00433686
         149	50	3	15.89629615	-14.55645248	-3.24475131
         150	50	4	16.49468566	-13.06944179	-5.38005979
         151	51	1	15.72354048	-13.91626049	-0.62112087
         152	51	3	13.66663488	-15.06087479	-0.48615996
         153	51	4	16.38312358	-15.28714994	-0.69282352
         154	52	1	12.11512164	-13.20057563	-1.69248524
         155	52	3	10.75282388	-14.07262979	-3.40796865
         156	52	4	11.52909155	-14.14144098	-0.64803795
         157	53	1	12.68393489	-14.47696948	-5.26011515
         158	53	3	10.93546313	-13.97608172	-6.76050676
         159	53	5	13.65568184	-14.59824481	-5.78904724
         160	54	1	11.13414304	-11.27816105	-6.69066851
         161	54	3	13.16219316	-10.1434837	-7.08908664
         162	54	4	10.37975404	-12.05873021	-7.75890913
         163	55	1	12.24117556	-8.33250574	-8.87660235
         164	55	3	11.4138346	-6.93626074	-7.16627378
         165	55	4	13.66375682	-8.85217169	-9.03703578
         166	56	1	13.23364797	-4.94544095	-7.38546064
         167	56	3	11.5131365	-3.38454628	-6.98214302
         168	56	4	13.04400451	-5.33370033	-5.92504323
         169	57	1	10.69971623	-3.04401004	-9.54056236
         170	57	3	8.81154048	-2.58682517	-8.20452668
         171	57	4	11.06496867	-1.60487705	-9.20142243
         172	58	1	7.77483825	-5.08570642	-8.14153497
         173	58	3	6.98263914	-4.05021617	-6.17700004
         174	58	4	6.58730438	-4.38152107	-8.78450877
         175	59	1	9.0981466	-4.59411947	-4.57952567
         176	59	3	8.04536743	-2.67479527	-3.7037017
         177	59	4	8.04240502	-5.32585712	-3.76129665
         178	60	1	9.40842129	-0.81330559	-5.11793906
         179	60	3	7.34693873	0.32663293	-5.21817291
         180	60	4	9.37606206	-0.41494992	-3.64831508
         181	61	1	6.49005906	-0.64313692	-7.59481564
         182	61	3	4.34168341	-1.59851474	-7.41888301
         183	61	4	5.9000916	0.57440835	-6.89549388
         184	62	1	5.08694488	-4.19830566	-7.32507717
         185	62	3	3.54724496	-5.1881889	-8.81123744
         186	62	5	5.61098869	-5.06968577	-6.87248046
         187	63	1	4.80850549	-4.58122159	-11.12725548
         188	63	3	6.43679969	-4.0048356	-12.73213995
         189	63	4	3.92580721	-5.81785597	-11.0218603

Bond Coeffs

           1	20	3.77
           2	20	2.41
           3	20	2.50
           4	20	1.54
           5	20	1.54
Bonds

           1	2	1	2
           2	4	1	3
           3	1	1	4
           4	3	2	4
           5	2	4	5
           6	4	4	6
           7	1	4	7
           8	3	5	7
           9	2	7	8
          10	4	7	9
          11	1	7	10
          12	3	8	10
          13	2	10	11
          14	4	10	12
          15	1	10	13
          16	3	11	13
          17	2	13	14
          18	4	13	15
          19	1	13	16
          20	3	14	16
          21	2	16	17
          22	4	16	18
          23	1	16	19
          24	3	17	19
          25	2	19	20
          26	4	19	21
          27	1	19	22
          28	3	20	22
          29	2	22	23
          30	4	22	24
          31	1	22	25
          32	3	23	25
          33	2	25	26
          34	4	25	27
          35	1	25	28
          36	3	26	28
          37	2	28	29
          38	4	28	30
          39	1	28	31
          40	3	29	31
          41	2	31	32
          42	4	31	33
          43	1	31	34
          44	3	32	34
          45	2	34	35
          46	4	34	36
          47	1	34	37
          48	3	35	37
          49	2	37	38
          50	4	37	39
          51	1	37	40
          52	3	38	40
          53	2	40	41
          54	5	40	42
          55	1	40	43
          56	3	41	43
          57	2	43	44
          58	4	43	45
          59	1	43	46
          60	3	44	46
          61	2	46	47
          62	4	46	48
          63	1	46	49
          64	3	47	49
          65	2	49	50
          66	4	49	51
          67	1	49	52
          68	3	50	52
          69	2	52	53
          70	4	52	54
          71	1	52	55
          72	3	53	55
          73	2	55	56
          74	4	55	57
          75	1	55	58
          76	3	56	58
          77	2	58	59
          78	4	58	60
          79	1	58	61
          80	3	59	61
          81	2	61	62
          82	4	61	63
          83	1	61	64
          84	3	62	64
          85	2	64	65
          86	4	64	66
          87	1	64	67
          88	3	65	67
          89	2	67	68
          90	4	67	69
          91	1	67	70
          92	3	68	70
          93	2	70	71
          94	4	70	72
          95	1	70	73
          96	3	71	73
          97	2	73	74
          98	5	73	75
          99	1	73	76
         100	3	74	76
         101	2	76	77
         102	4	76	78
         103	1	76	79
         104	3	77	79
         105	2	79	80
         106	4	79	81
         107	1	79	82
         108	3	80	82
         109	2	82	83
         110	4	82	84
         111	1	82	85
         112	3	83	85
         113	2	85	86
         114	4	85	87
         115	1	85	88
         116	3	86	88
         117	2	88	89
         118	4	88	90
         119	1	88	91
         120	3	89	91
         121	2	91	92
         122	4	91	93
         123	1	91	94
         124	3	92	94
         125	2	94	95
         126	4	94	96
         127	1	94	97
         128	3	95	97
         129	2	97	98
         130	4	97	99
         131	1	97	100
         132	3	98	100
         133	2	100	101
         134	4	100	102
         135	1	100	103
         136	3	101	103
         137	2	103	104
         138	4	103	105
         139	1	103	106
         140	3	104	106
         141	2	106	107
         142	4	106	108
         143	1	106	109
         144	3	107	109
         145	2	109	110
         146	5	109	111
         147	1	109	112
         148	3	110	112
         149	2	112	113
         150	4	112	114
         151	1	112	115
         152	3	113	115
         153	2	115	116
         154	4	115	117
         155	1	115	118
         156	3	116	118
         157	2	118	119
         158	4	118	120
         159	1	118	121
         160	3	119	121
         161	2	121	122
         162	4	121	123
         163	1	121	124
         164	3	122	124
         165	2	124	125
         166	4	124	126
         167	1	124	127
         168	3	125	127
         169	2	127	128
         170	4	127	129
         171	1	127	130
         172	3	128	130
         173	2	130	131
         174	4	130	132
         175	1	130	133
         176	3	131	133
         177	2	133	134
         178	4	133	135
         179	1	133	136
         180	3	134	136
         181	2	136	137
         182	4	136	138
         183	1	136	139
         184	3	137	139
         185	2	139	140
         186	4	139	141
         187	1	139	142
         188	3	140	142
         189	2	142	143
         190	4	142	144
         191	1	142	145
         192	3	143	145
         193	2	145	146
         194	4	145	147
         195	1	145	148
         196	3	146	148
         197	2	148	149
         198	4	148	150
         199	1	148	151
         200	3	149	151
         201	2	151	152
         202	4	151	153
         203	1	151	154
         204	3	152	154
         205	2	154	155
         206	4	154	156
         207	1	154	157
         208	3	155	157
         209	2	157	158
         210	5	157	159
         211	1	157	160
         212	3	158	160
         213	2	160	161
         214	4	160	162
         215	1	160	163
         216	3	161	163
         217	2	163	164
         218	4	163	165
         219	1	163	166
         220	3	164	166
         221	2	166	167
         222	4	166	168
         223	1	166	169
         224	3	167	169
         225	2	169	170
         226	4	169	171
         227	1	169	172
         228	3	170	172
         229	2	172	173
         230	4	172	174
         231	1	172	175
         232	3	173	175
         233	2	175	176
         234	4	175	177
         235	1	175	178
         236	3	176	178
         237	2	178	179
         238	4	178	180
         239	1	178	181
         240	3	179	181
         241	2	181	182
         242	4	181	183
         243	1	181	184
         244	3	182	184
         245	2	184	185
         246	5	184	186
         247	1	184	187
         248	3	185	187
         249	2	187	188
         250	4	187	189

