LAMMPS protain data file

         189  atoms
         250  bonds
           0  angles
           0  dihedrals
           0  impropers

           5  atom types
           5  bond types
           0  angle types
           0  dihedral types
           0  improper types

-1000.0	1000.0	xlo xhi
-1000.0	1000.0	ylo yhi
-1000.0	1000.0	zlo zhi

Masses

           1	27.0
           2	14.0
           3	28.0
           4	60.0
           5	2.0

Atoms

           1	1	1	1	0.0	-10.02799988	-9.53800011	22.22900009
           2	1	1	3	0.0	-9.60000038	-7.31599998	23.02400017
           3	1	1	4	0.0	-11.38599968	-10.11299992	21.88599968
           4	1	2	1	0.0	-10.39799976	-6.11199999	20.63999939
           5	1	2	3	0.0	-10.91699982	-4.14300013	21.83200073
           6	1	2	4	0.0	-10.64799976	-5.86000013	19.1060009
           7	1	3	1	0.0	-13.36600018	-5.09499979	22.84300041
           8	1	3	3	0.0	-12.89099979	-3.72399998	24.76099968
           9	1	3	4	0.0	-14.67199993	-5.85200024	22.97400093
          10	1	4	1	0.0	-11.42800045	-5.65999985	26.06599998
          11	1	4	3	0.0	-10.00300026	-3.89400005	26.79000092
          12	1	4	4	0.0	-11.19200039	-6.98699999	26.75799942
          13	1	5	1	0.0	-8.26399994	-4.07499981	24.58099937
          14	1	5	3	0.0	-7.80999994	-1.74100006	24.68499947
          15	1	5	4	0.0	-7.3920002	-4.62599993	23.45999908
          16	1	6	1	0.0	-10.18599987	-0.99900001	23.38100052
          17	1	6	3	0.0	-10.29399967	0.85500002	24.92300034
          18	1	6	4	0.0	-11.27499962	-0.97299999	22.29100037
          19	1	7	1	0.0	-11.9090004	-0.52100003	26.74699974
          20	1	7	3	0.0	-10.60499954	0.94800001	28.16300011
          21	1	7	4	0.0	-12.87800026	-1.505	27.38899994
          22	1	8	1	0.0	-8.62100029	-0.99800003	28.60400009
          23	1	8	3	0.0	-7.31599998	0.91100001	29.20899963
          24	1	8	4	0.0	-7.76300001	-2.25699997	28.50300026
          25	1	9	1	0.0	-6.75600004	1.61099994	26.54599953
          26	1	9	3	0.0	-6.83799982	3.90100002	27.08799934
          27	1	9	4	0.0	-6.30600023	1.54799998	25.09300041
          28	1	10	1	0.0	-9.47200012	4.24900007	26.48800087
          29	1	10	3	0.0	-9.31200027	5.86299992	28.22200012
          30	1	10	4	0.0	-10.78899956	4.36899996	25.78499985
          31	1	11	1	0.0	-9.63599968	4.02400017	30.31399918
          32	1	11	3	0.0	-8.2840004	5.59100008	31.55400085
          33	1	11	4	0.0	-10.22299957	2.77600002	31.07699966
          34	1	12	1	0.0	-5.86999989	4.40799999	30.63699913
          35	1	12	3	0.0	-4.74800014	6.5539999	30.73900032
          36	1	12	4	0.0	-4.87900019	3.39899993	30.04500008
          37	1	13	1	0.0	-6.14099979	7.53700018	28.46899986
          38	1	13	3	0.0	-7.06699991	9.75300026	28.68199921
          39	1	13	4	0.0	-6.26300001	7.32000017	26.95000076
          40	1	14	1	0.0	-9.09899998	8.86999989	30.47100067
          41	1	14	3	0.0	-10.69999981	10.37800026	29.59799957
          42	1	14	5	0.0	-8.04199982	8.79242041	29.74968502
          43	1	15	1	0.0	-11.61699963	8.63300037	27.59399986
          44	1	15	3	0.0	-12.76799965	6.61600018	28.20700073
          45	1	15	4	0.0	-11.04800034	8.34200001	26.1970005
          46	1	16	1	0.0	-15.30599976	7.7249999	27.83699989
          47	1	16	3	0.0	-14.90799999	7.77400017	25.49699974
          48	1	16	4	0.0	-16.33200073	8.45600033	28.65800095
          49	1	17	1	0.0	-17.05800056	6.19000006	24.78499985
          50	1	17	3	0.0	-17.04700089	7.23400021	22.64900017
          51	1	17	4	0.0	-18.20199966	5.18200016	24.76499939
          52	1	18	1	0.0	-18.3920002	9.53199959	23.53899956
          53	1	18	3	0.0	-17.17399979	10.73200035	21.87700081
          54	1	18	4	0.0	-19.37700081	10.41499996	24.27400017
          55	1	19	1	0.0	-14.9119997	11.07199955	23.57999992
          56	1	19	3	0.0	-13.47599983	10.95100021	21.6760006
          57	1	19	4	0.0	-14.07499981	11.22099972	24.84600067
          58	1	20	1	0.0	-13.40100002	8.10400009	21.75200081
          59	1	20	3	0.0	-13.35700035	8.1420002	19.36599922
          60	1	20	4	0.0	-13.2130003	6.68599987	22.29100037
          61	1	21	1	0.0	-16.1989994	8.25599957	19.125
          62	1	21	3	0.0	-15.54300022	9.43299961	17.14500046
          63	1	21	4	0.0	-17.68799973	8.2159996	19.41600037
          64	1	22	1	0.0	-15.49400043	11.95300007	18.3920002
          65	1	22	3	0.0	-13.7489996	12.64900017	16.8920002
          66	1	22	4	0.0	-15.75699997	13.11999989	19.34000015
          67	1	23	1	0.0	-11.71100044	11.29599953	18.21899986
          68	1	23	3	0.0	-10.69999981	10.76399994	16.07799911
          69	1	23	4	0.0	-10.80799961	10.78499985	19.32900047
          70	1	24	1	0.0	-12.26200008	8.43500042	15.75500011
          71	1	24	3	0.0	-12.7329998	8.77799988	13.44099998
          72	1	24	4	0.0	-12.63799953	7.03299999	16.2670002
          73	1	25	1	0.0	-15.02799988	10.3380003	13.91499996
          74	1	25	3	0.0	-16.5720005	9.31200027	12.36499977
          75	1	25	5	0.0	-14.14400005	10.85027018	12.32718959
          76	1	26	1	0.0	-17.70000076	7.65100002	14.32499981
          77	1	26	3	0.0	-18.79000092	9.01200008	15.98099995
          78	1	26	4	0.0	-17.20800018	6.16099977	14.40600014
          79	1	27	1	0.0	-20.98600006	7.204	16.20400047
          80	1	27	3	0.0	-19.8220005	5.73400021	17.68499947
          81	1	27	4	0.0	-22.25900078	6.58799982	15.5010004
          82	1	28	1	0.0	-21.34900093	6.46099997	19.92099953
          83	1	28	3	0.0	-20.93400002	4.15899992	20.47500038
          84	1	28	4	0.0	-22.13899994	7.23199987	20.9640007
          85	1	29	1	0.0	-23.18799973	3.24000001	18.9470005
          86	1	29	3	0.0	-22.11199951	1.13499999	18.70299911
          87	1	29	4	0.0	-24.51000023	3.21000004	18.15999985
          88	1	30	1	0.0	-20.25	1.99199998	16.81100082
          89	1	30	3	0.0	-18.69300079	0.47	17.8220005
          90	1	30	4	0.0	-19.48200035	2.70300007	15.71199989
          91	1	31	1	0.0	-17.98399925	2.29200006	19.85899925
          92	1	31	3	0.0	-17.77400017	0.368	21.31100082
          93	1	31	4	0.0	-17.54899979	3.57500005	20.64800072
          94	1	32	1	0.0	-20.5170002	0.454	22.02400017
          95	1	32	3	0.0	-20.29899979	-1.91799998	22.27300072
          96	1	32	4	0.0	-21.9659996	0.91500002	22.17300034
          97	1	33	1	0.0	-20.80599976	-2.39199996	19.52199936
          98	1	33	3	0.0	-19.3579998	-4.30200005	19.53100014
          99	1	33	4	0.0	-21.4279995	-2.26300001	18.11800003
         100	1	34	1	0.0	-17.02199936	-2.83100009	19.38400078
         101	1	34	3	0.0	-16.0170002	-4.34399986	20.95700073
         102	1	34	4	0.0	-16.14999962	-1.79100001	18.72200012
         103	1	35	1	0.0	-16.79599953	-2.8670001	23.20499992
         104	1	35	3	0.0	-17.22299957	-4.61000013	24.73500061
         105	1	35	4	0.0	-16.90399933	-1.63499999	24.10499954
         106	1	36	1	0.0	-19.64999962	-5.41900015	23.42300034
         107	1	36	3	0.0	-20.22800064	-7.59700012	22.49500084
         108	1	36	4	0.0	-21.10099983	-4.94899988	23.38500023
         109	1	37	1	0.0	-17.92900085	-7.66800022	20.84300041
         110	1	37	3	0.0	-18.78800011	-9.0170002	19.0890007
         111	1	37	5	0.0	-18.35499954	-8.00051497	19.37489293
         112	1	38	1	0.0	-20.57600021	-7.06699991	18.12199974
         113	1	38	3	0.0	-20.40600014	-7.33300018	15.74699974
         114	1	38	4	0.0	-21.81800079	-6.19199991	18.28300095
         115	1	39	1	0.0	-18.09900093	-5.72399998	15.54100037
         116	1	39	3	0.0	-16.10700035	-5.48999977	16.90600014
         117	1	39	4	0.0	-18.48200035	-4.31899977	14.95800018
         118	1	40	1	0.0	-14.56599998	-7.09899998	15.2130003
         119	1	40	3	0.0	-12.43299961	-6.38500023	14.48700047
         120	1	40	4	0.0	-14.37899971	-8.61800003	15.16300011
         121	1	41	1	0.0	-13.39599991	-5.37699986	12.02099991
         122	1	41	3	0.0	-14.43599987	-4.09899998	10.27000046
         123	1	41	4	0.0	-13.12300014	-6.3829999	10.88899994
         124	1	42	1	0.0	-14.69799995	-1.80499995	11.82900047
         125	1	42	3	0.0	-12.72900009	-1.64999998	10.47599983
         126	1	42	4	0.0	-14.71199989	-0.949	13.08399963
         127	1	43	1	0.0	-13.83300018	0.352	8.81900024
         128	1	43	3	0.0	-11.76500034	1.55999994	8.60999966
         129	1	43	4	0.0	-14.83300018	1.08099997	7.92500019
         130	1	44	1	0.0	-12.06499958	2.74600005	11.16499996
         131	1	44	3	0.0	-10.60499954	2.86100006	12.99300003
         132	1	44	4	0.0	-12.91800022	3.74300003	11.97500038
         133	1	45	1	0.0	-9.30000019	0.45199999	12.52200031
         134	1	45	3	0.0	-7.52600002	1.39999998	13.76799965
         135	1	45	4	0.0	-9.03100014	-0.99699998	12.09599972
         136	1	46	1	0.0	-6.35599995	2.70900011	11.56900024
         137	1	46	3	0.0	-5.59700012	4.36399984	13.12800026
         138	1	46	4	0.0	-6.09000015	3.02600002	10.09399986
         139	1	47	1	0.0	-8.04599953	5.73600006	13.18599987
         140	1	47	3	0.0	-7.94000006	6.19399977	15.55500031
         141	1	47	4	0.0	-9.34200001	6.44299984	12.83199978
         142	1	48	1	0.0	-8.88399982	3.65199995	16.27799988
         143	1	48	3	0.0	-7.375	3.77999997	18.13100052
         144	1	48	4	0.0	-9.79100037	2.43499994	16.25200081
         145	1	49	1	0.0	-5.27400017	2.56299996	16.68400002
         146	1	49	3	0.0	-3.86899996	3.875	18.10899925
         147	1	49	4	0.0	-4.43599987	1.77999997	15.69299984
         148	1	50	1	0.0	-4.05900002	6.16200018	16.38999939
         149	1	50	3	0.0	-3.81200004	7.54799986	18.31699944
         150	1	50	4	0.0	-4.17199993	6.9289999	15.07400036
         151	1	51	1	0.0	-6.56400013	7.59000015	18.89599991
         152	1	51	3	0.0	-6.23699999	7.6170001	21.28199959
         153	1	51	4	0.0	-8.0710001	7.6079998	18.63800049
         154	1	52	1	0.0	-5.55800009	4.84800005	21.39100075
         155	1	52	3	0.0	-3.58200002	4.22100019	22.625
         156	1	52	4	0.0	-6.19099998	3.44799995	21.30999947
         157	1	53	1	0.0	-1.82700002	5.29899979	20.73800087
         158	1	53	3	0.0	-0.28	3.59599996	21.41500092
         159	1	53	5	0.0	-3.28699994	5.83227557	19.504193
         160	1	54	1	0.0	-1.45200002	1.66700006	19.68300056
         161	1	54	3	0.0	-1.829	2.10299993	17.32999992
         162	1	54	4	0.0	-2.34899998	0.67500001	20.45199966
         163	1	55	1	0.0	-0.76099998	-0.41600001	16.57999992
         164	1	55	3	0.0	-2.80500007	-1.49899995	17.21899986
         165	1	55	4	0.0	0.37	-1.43599999	16.50799942
         166	1	56	1	0.0	-3.47600007	-2.15100002	14.57900047
         167	1	56	3	0.0	-4.28900003	-4.28700018	15.32900047
         168	1	56	4	0.0	-3.76399994	-1.84300005	13.09799957
         169	1	57	1	0.0	-1.755	-5.52400017	15.12699986
         170	1	57	3	0.0	-2.84699988	-6.80100012	16.86400032
         171	1	57	4	0.0	-0.28200001	-5.77299976	14.81200027
         172	1	58	1	0.0	-1.94799995	-5.12200022	18.9090004
         173	1	58	3	0.0	-3.86199999	-6.10900021	19.87700081
         174	1	58	4	0.0	-1.27900004	-4.07299995	19.79599953
         175	1	59	1	0.0	-5.69099998	-4.26999998	18.79400063
         176	1	59	3	0.0	-7.12300014	-6.16599989	19.22800064
         177	1	59	4	0.0	-6.29400015	-3.12700009	17.96500015
         178	1	60	1	0.0	-6.61499977	-7.26900005	16.6590004
         179	1	60	3	0.0	-6.92700005	-9.50300026	17.39100075
         180	1	60	4	0.0	-6.37300014	-7.14499998	15.13199997
         181	1	61	1	0.0	-4.19199991	-9.95100021	17.90099907
         182	1	61	3	0.0	-3.71600008	-11.08899975	19.94300079
         183	1	61	4	0.0	-3.06900001	-10.28800011	16.89100075
         184	1	62	1	0.0	-2.88100004	-8.75899982	21.28899956
         185	1	62	3	0.0	-0.88499999	-9.43200016	22.44599915
         186	1	62	5	0.0	-3.35400009	-7.90099007	21.18818245
         187	1	63	1	0.0	0.72500002	-9.21800041	20.14800072
         188	1	63	3	0.0	1.40999997	-8.80799961	17.98999977
         189	1	63	4	0.0	1.05599999	-10.70100021	19.72400093

Bond Coeffs

           1	60	3.816
           2	60	2.40
           3	60	2.76
           4	60	1.53
           5	60	1.09
Bonds

           1	2	1	2
           2	4	1	3
           3	1	1	4
           4	3	2	4
           5	2	4	5
           6	4	4	6
           7	1	4	7
           8	3	5	7
           9	2	7	8
          10	4	7	9
          11	1	7	10
          12	3	8	10
          13	2	10	11
          14	4	10	12
          15	1	10	13
          16	3	11	13
          17	2	13	14
          18	4	13	15
          19	1	13	16
          20	3	14	16
          21	2	16	17
          22	4	16	18
          23	1	16	19
          24	3	17	19
          25	2	19	20
          26	4	19	21
          27	1	19	22
          28	3	20	22
          29	2	22	23
          30	4	22	24
          31	1	22	25
          32	3	23	25
          33	2	25	26
          34	4	25	27
          35	1	25	28
          36	3	26	28
          37	2	28	29
          38	4	28	30
          39	1	28	31
          40	3	29	31
          41	2	31	32
          42	4	31	33
          43	1	31	34
          44	3	32	34
          45	2	34	35
          46	4	34	36
          47	1	34	37
          48	3	35	37
          49	2	37	38
          50	4	37	39
          51	1	37	40
          52	3	38	40
          53	2	40	41
          54	5	40	42
          55	1	40	43
          56	3	41	43
          57	2	43	44
          58	4	43	45
          59	1	43	46
          60	3	44	46
          61	2	46	47
          62	4	46	48
          63	1	46	49
          64	3	47	49
          65	2	49	50
          66	4	49	51
          67	1	49	52
          68	3	50	52
          69	2	52	53
          70	4	52	54
          71	1	52	55
          72	3	53	55
          73	2	55	56
          74	4	55	57
          75	1	55	58
          76	3	56	58
          77	2	58	59
          78	4	58	60
          79	1	58	61
          80	3	59	61
          81	2	61	62
          82	4	61	63
          83	1	61	64
          84	3	62	64
          85	2	64	65
          86	4	64	66
          87	1	64	67
          88	3	65	67
          89	2	67	68
          90	4	67	69
          91	1	67	70
          92	3	68	70
          93	2	70	71
          94	4	70	72
          95	1	70	73
          96	3	71	73
          97	2	73	74
          98	5	73	75
          99	1	73	76
         100	3	74	76
         101	2	76	77
         102	4	76	78
         103	1	76	79
         104	3	77	79
         105	2	79	80
         106	4	79	81
         107	1	79	82
         108	3	80	82
         109	2	82	83
         110	4	82	84
         111	1	82	85
         112	3	83	85
         113	2	85	86
         114	4	85	87
         115	1	85	88
         116	3	86	88
         117	2	88	89
         118	4	88	90
         119	1	88	91
         120	3	89	91
         121	2	91	92
         122	4	91	93
         123	1	91	94
         124	3	92	94
         125	2	94	95
         126	4	94	96
         127	1	94	97
         128	3	95	97
         129	2	97	98
         130	4	97	99
         131	1	97	100
         132	3	98	100
         133	2	100	101
         134	4	100	102
         135	1	100	103
         136	3	101	103
         137	2	103	104
         138	4	103	105
         139	1	103	106
         140	3	104	106
         141	2	106	107
         142	4	106	108
         143	1	106	109
         144	3	107	109
         145	2	109	110
         146	5	109	111
         147	1	109	112
         148	3	110	112
         149	2	112	113
         150	4	112	114
         151	1	112	115
         152	3	113	115
         153	2	115	116
         154	4	115	117
         155	1	115	118
         156	3	116	118
         157	2	118	119
         158	4	118	120
         159	1	118	121
         160	3	119	121
         161	2	121	122
         162	4	121	123
         163	1	121	124
         164	3	122	124
         165	2	124	125
         166	4	124	126
         167	1	124	127
         168	3	125	127
         169	2	127	128
         170	4	127	129
         171	1	127	130
         172	3	128	130
         173	2	130	131
         174	4	130	132
         175	1	130	133
         176	3	131	133
         177	2	133	134
         178	4	133	135
         179	1	133	136
         180	3	134	136
         181	2	136	137
         182	4	136	138
         183	1	136	139
         184	3	137	139
         185	2	139	140
         186	4	139	141
         187	1	139	142
         188	3	140	142
         189	2	142	143
         190	4	142	144
         191	1	142	145
         192	3	143	145
         193	2	145	146
         194	4	145	147
         195	1	145	148
         196	3	146	148
         197	2	148	149
         198	4	148	150
         199	1	148	151
         200	3	149	151
         201	2	151	152
         202	4	151	153
         203	1	151	154
         204	3	152	154
         205	2	154	155
         206	4	154	156
         207	1	154	157
         208	3	155	157
         209	2	157	158
         210	5	157	159
         211	1	157	160
         212	3	158	160
         213	2	160	161
         214	4	160	162
         215	1	160	163
         216	3	161	163
         217	2	163	164
         218	4	163	165
         219	1	163	166
         220	3	164	166
         221	2	166	167
         222	4	166	168
         223	1	166	169
         224	3	167	169
         225	2	169	170
         226	4	169	171
         227	1	169	172
         228	3	170	172
         229	2	172	173
         230	4	172	174
         231	1	172	175
         232	3	173	175
         233	2	175	176
         234	4	175	177
         235	1	175	178
         236	3	176	178
         237	2	178	179
         238	4	178	180
         239	1	178	181
         240	3	179	181
         241	2	181	182
         242	4	181	183
         243	1	181	184
         244	3	182	184
         245	2	184	185
         246	5	184	186
         247	1	184	187
         248	3	185	187
         249	2	187	188
         250	4	187	189

