LAMMPS protain data file

         189  atoms
         250  bonds
           0  angles
           0  dihedrals
           0  impropers

           5  atom types
           5  bond types
           0  angle types
           0  dihedral types
           0  improper types

-1000.0	1000.0	xlo xhi
-1000.0	1000.0	ylo yhi
-1000.0	1000.0	zlo zhi

Masses

           1	27.0
           2	14.0
           3	28.0
           4	60.0
           5	2.0

Atoms

           1	1	1	1	0.0	0.009	0.077	-0.68800002
           2	1	1	3	0.0	2.10500002	-0.83200002	0.051
           3	1	1	4	0.0	-0.49399999	0.92900002	0.50400001
           4	1	2	1	0.0	3.70000005	0.46399999	-1.36899996
           5	1	2	3	0.0	4.44099998	2.59200001	-2.2190001
           6	1	2	4	0.0	4.21000004	-0.60600001	-2.41700006
           7	1	3	1	0.0	6.24399996	3.13199997	-0.57300001
           8	1	3	3	0.0	8.21199989	2.44799995	0.62199998
           9	1	3	4	0.0	5.62699986	4.25899982	0.29300001
          10	1	4	1	0.0	9.9989996	3.34299994	-0.87599999
          11	1	4	3	0.0	10.89500046	5.18200016	-2.13499999
          12	1	4	4	0.0	10.58199978	2.079	-1.55400002
          13	1	5	1	0.0	12.50399971	6.13700008	-0.48100001
          14	1	5	3	0.0	14.29599953	5.78800011	1.07700002
          15	1	5	4	0.0	11.80500031	7.41900015	0.052
          16	1	6	1	0.0	16.27300072	6.27600002	-0.368
          17	1	6	3	0.0	17.36400032	7.73600006	-1.94000006
          18	1	6	4	0.0	16.90699959	4.86299992	-0.68199998
          19	1	7	1	0.0	18.79199982	9.08399963	-0.39199999
          20	1	7	3	0.0	20.37800026	9.15100002	1.41900003
          21	1	7	4	0.0	18.08499908	10.46399975	-0.29800001
          22	1	8	1	0.0	22.52199936	9.26099968	0.139
          23	1	8	3	0.0	23.82999992	10.27499962	-1.60099995
          24	1	8	4	0.0	23.13299942	7.84899998	0.32100001
          25	1	9	1	0.0	25.10300064	11.97900009	-0.292
          26	1	9	3	0.0	26.46500015	12.51200008	1.62199998
          27	1	9	4	0.0	24.42900085	13.33500004	-0.63800001
          28	1	10	1	0.0	28.74900055	12.29899979	0.62599999
          29	1	10	3	0.0	30.27899933	12.84000015	-1.14100003
          30	1	10	4	0.0	29.28899956	10.94699955	1.17299998
          31	1	11	1	0.0	31.43499947	14.82600021	-0.16599999
          32	1	11	3	0.0	32.57500076	15.83600044	1.70000005
          33	1	11	4	0.0	30.86100006	16.0359993	-1.00999999
          34	1	12	1	0.0	34.95299911	15.38300037	1.07299995
          35	1	12	3	0.0	36.69800186	15.46000004	-0.57200003
          36	1	12	4	0.0	35.39400101	14.22099972	1.99199998
          37	1	13	1	0.0	37.78499985	17.63299942	-0.0
          38	1	13	3	0.0	38.72200012	19.0909996	1.67400002
          39	1	13	4	0.0	37.34600067	18.60400009	-1.13300002
          40	1	14	1	0.0	41.14500046	18.50099945	1.47899997
          41	1	14	3	0.0	43.07500076	18.15699959	0.09
          42	1	14	5	0.0	40.28699875	17.76415199	2.6755969
          43	1	15	1	0.0	44.14400101	20.4109993	0.223
          44	1	15	3	0.0	44.91699982	22.24900055	1.574
          45	1	15	4	0.0	43.87099838	21.05800056	-1.16400003
          46	1	16	1	0.0	47.32799911	21.63699913	1.83200002
          47	1	16	3	0.0	49.39799881	20.95899963	0.82099998
          48	1	16	4	0.0	47.45899963	21.1079998	3.28999996
          49	1	17	1	0.0	50.50799942	23.17300034	0.505
          50	1	17	3	0.0	51.17100143	25.28800011	1.42400002
          51	1	17	4	0.0	50.3730011	23.47699928	-1.00399995
          52	1	18	1	0.0	53.51399994	24.78100014	2.11999989
          53	1	18	3	0.0	55.67300034	23.86800003	1.57299995
          54	1	18	4	0.0	53.40399933	24.62199974	3.64700007
          55	1	19	1	0.0	56.86899948	25.93700027	0.83999997
          56	1	19	3	0.0	57.47399902	28.22900009	1.26400006
          57	1	19	4	0.0	56.94900131	25.8390007	-0.70999998
          58	1	20	1	0.0	59.70600128	27.91500092	2.34599996
          59	1	20	3	0.0	61.88899994	26.89800072	2.31399989
          60	1	20	4	0.0	59.45800018	28.21500015	3.85100007
          61	1	21	1	0.0	63.2179985	28.71699905	1.23099995
          62	1	21	3	0.0	63.83300018	31.04199982	1.13
          63	1	21	4	0.0	63.41400146	28.20400047	-0.206
          64	1	22	1	0.0	65.91100311	31.02300072	2.51799989
          65	1	22	3	0.0	68.0490036	30.04899979	3.00600004
          66	1	22	4	0.0	65.49299622	31.63999939	3.87100005
          67	1	23	1	0.0	69.5530014	31.53000069	1.67200005
          68	1	23	3	0.0	70.23699951	33.75699997	1.05999994
          69	1	23	4	0.0	69.95999908	30.68000031	0.43799999
          70	1	24	1	0.0	72.13600159	34.09999847	2.65100002
          71	1	24	3	0.0	74.1780014	33.28499985	3.63100004
          72	1	24	4	0.0	71.57299805	35.08800125	3.74799991
          73	1	25	1	0.0	75.86399841	34.38700104	2.15199995
          74	1	25	3	0.0	76.67700195	36.38199997	1.08700001
          75	1	25	5	0.0	74.48300171	31.14349224	2.41352846
          76	1	26	1	0.0	78.38200378	37.12900162	2.75200009
          77	1	26	3	0.0	80.26200104	36.60800171	4.12799978
          78	1	26	4	0.0	77.73400116	38.36399841	3.46399999
          79	1	27	1	0.0	82.14900208	37.29499817	2.65300012
          80	1	27	3	0.0	83.13600159	38.9469986	1.24199998
          81	1	27	4	0.0	82.77400208	35.95199966	2.14499998
          82	1	28	1	0.0	84.65299988	40.10900116	2.84100008
          83	1	28	3	0.0	86.34500122	39.96099854	4.53599977
          84	1	28	4	0.0	83.94499969	41.44100189	3.171
          85	1	29	1	0.0	88.40899658	40.25699997	3.16199994
          86	1	29	3	0.0	89.60500336	41.5	1.49399996
          87	1	29	4	0.0	89.01799774	38.8429985	3.04399991
          88	1	30	1	0.0	90.9509964	43.03499985	2.93099999
          89	1	30	3	0.0	92.4240036	43.33200073	4.80499983
          90	1	30	4	0.0	90.26599884	44.41199875	2.74499989
          91	1	31	1	0.0	94.64499664	43.27199936	3.66300011
          92	1	31	3	0.0	96.06800079	44.04899979	1.88300002
          93	1	31	4	0.0	95.23999786	41.87099838	4.09399986
          94	1	32	1	0.0	97.27300262	45.90599823	3.046
          95	1	32	3	0.0	98.51999664	46.67900085	4.95599985
          96	1	32	4	0.0	96.64399719	47.2159996	2.4920001
          97	1	33	1	0.0	100.85800171	46.33399963	4.13700008
          98	1	33	3	0.0	102.5	46.63899994	2.41499996
          99	1	33	4	0.0	101.35500336	45.06800079	4.86999989
         100	1	34	1	0.0	103.61499786	48.73099899	3.19700003
         101	1	34	3	0.0	104.64900208	49.97000122	4.98699999
         102	1	34	4	0.0	103.10700226	49.83499908	2.227
         103	1	35	1	0.0	107.05599976	49.43299866	4.57499981
         104	1	35	3	0.0	108.90399933	49.2859993	3.03800011
         105	1	35	4	0.0	107.44400024	48.4090004	5.67999983
         106	1	36	1	0.0	109.97100067	51.51699829	3.4000001
         107	1	36	3	0.0	110.8219986	53.16799927	4.92299986
         108	1	36	4	0.0	109.58999634	52.35800171	2.14700007
         109	1	37	1	0.0	113.2440033	52.55899811	4.96299982
         110	1	37	3	0.0	115.2519989	52.03300095	3.75300002
         111	1	37	5	0.0	112.43699646	49.81768041	5.87044595
         112	1	38	1	0.0	116.33599854	54.28300095	3.66199994
         113	1	38	3	0.0	117.04399872	56.27899933	4.80999994
         114	1	38	4	0.0	116.1269989	54.76800156	2.20099998
         115	1	39	1	0.0	119.42700195	55.69900131	5.29400015
         116	1	39	3	0.0	121.53900146	54.90399933	4.51499987
         117	1	39	4	0.0	119.46199799	55.39500046	6.82999992
         118	1	40	1	0.0	122.6989975	57.04499817	3.9849999
         119	1	40	3	0.0	123.3219986	59.26900101	4.66699982
         120	1	40	4	0.0	122.68000031	57.13899994	2.43499994
         121	1	41	1	0.0	125.61399841	58.8409996	5.56899977
         122	1	41	3	0.0	127.78900146	57.86700058	5.27899981
         123	1	41	4	0.0	125.44300079	58.89199829	7.11399984
         124	1	42	1	0.0	129.05599976	59.86100006	4.35200024
         125	1	42	3	0.0	129.23399353	58.18700027	6.07499981
         126	1	42	4	0.0	129.73599243	61.06900024	5.01300001
         127	1	43	1	0.0	130.6269989	56.44300079	4.92000008
         128	1	43	3	0.0	132.57499695	55.89799881	3.62899995
         129	1	43	4	0.0	129.61999512	55.31700134	4.55000019
         130	1	44	1	0.0	134.16400146	55.23799896	5.4369998
         131	1	44	3	0.0	134.60400391	53.94900131	7.44700003
         132	1	44	4	0.0	135.17500305	56.41199875	5.61000013
         133	1	45	1	0.0	135.68800354	51.93099976	6.42299986
         134	1	45	3	0.0	137.33700562	50.99599838	4.93599987
         135	1	45	4	0.0	134.61099243	50.81399918	6.53200006
         136	1	46	1	0.0	139.23500061	50.60699844	6.57999992
         137	1	46	3	0.0	137.97900391	49.44900131	4.88199997
         138	1	46	4	0.0	139.55000305	49.47499847	7.56899977
         139	1	47	1	0.0	139.44200134	49.79399872	2.86899996
         140	1	47	3	0.0	141.63600159	49.70800018	1.87899995
         141	1	47	4	0.0	138.71899414	50.87099838	2.01099992
         142	1	48	1	0.0	141.56300354	47.4469986	0.81400001
         143	1	48	3	0.0	140.40600586	45.85900116	-0.579
         144	1	48	4	0.0	142.47099304	46.56100082	1.71399999
         145	1	49	1	0.0	141.48599243	46.32300186	-2.78500009
         146	1	49	3	0.0	143.4960022	46.63000107	-4.07299995
         147	1	49	4	0.0	140.41799927	47.13499832	-3.53800011
         148	1	50	1	0.0	143.83299255	44.31499863	-4.95100021
         149	1	50	3	0.0	142.92700195	42.37799835	-6.04400015
         150	1	50	4	0.0	145.03599548	43.78099823	-4.13399982
         151	1	51	1	0.0	143.57899475	42.83200073	-8.41100025
         152	1	51	3	0.0	145.28300476	43.44900131	-9.99499989
         153	1	51	4	0.0	142.26400757	43.29899979	-9.05799961
         154	1	52	1	0.0	146.04800415	41.18999863	-10.74300003
         155	1	52	3	0.0	145.4980011	38.98699951	-11.54699993
         156	1	52	4	0.0	147.43600464	41.0019989	-10.06700039
         157	1	53	1	0.0	145.72599792	39.3370018	-14.01299953
         158	1	53	3	0.0	147.02200317	40.15100098	-15.86600018
         159	1	53	5	0.0	146.0059967	35.78817991	-13.1622172
         160	1	54	1	0.0	148.20399475	38.06100082	-16.5529995
         161	1	54	3	0.0	148.09700012	35.72100067	-17.11000061
         162	1	54	4	0.0	149.69000244	38.2480011	-16.04800034
         163	1	55	1	0.0	147.92799377	35.85400009	-19.60000038
         164	1	55	3	0.0	148.7539978	36.74100113	-21.67300034
         165	1	55	4	0.0	146.45500183	35.47600174	-19.89100075
         166	1	56	1	0.0	150.30499268	34.9129982	-22.375
         167	1	56	3	0.0	150.69000244	32.56499863	-22.74099922
         168	1	56	4	0.0	151.7539978	35.48199844	-22.10499954
         169	1	57	1	0.0	150.18699646	32.39699936	-25.18400002
         170	1	57	3	0.0	150.51100159	33.23300171	-27.42000008
         171	1	57	4	0.0	148.80900574	31.68000031	-25.25
         172	1	58	1	0.0	152.35400391	31.73200035	-28.19799995
         173	1	58	3	0.0	153.23199463	29.51300049	-28.44799995
         174	1	58	4	0.0	153.65299988	32.58399963	-28.16200066
         175	1	59	1	0.0	152.48899841	28.97599983	-30.77099991
         176	1	59	3	0.0	152.32699585	29.62700081	-33.08499908
         177	1	59	4	0.0	151.32200623	27.9640007	-30.58799934
         178	1	60	1	0.0	154.36300659	28.51000023	-34.01100159
         179	1	60	3	0.0	155.71299744	26.52499962	-34.22100067
         180	1	60	4	0.0	155.36700439	29.67000008	-34.26399994
         181	1	61	1	0.0	154.82800293	25.60300064	-36.36999893
         182	1	61	3	0.0	154.23699951	25.95400047	-38.67100143
         183	1	61	4	0.0	153.93499756	24.39800072	-35.95800018
         184	1	62	1	0.0	156.34199524	25.23800087	-39.80699921
         185	1	62	3	0.0	158.08299255	23.60199928	-40.06900024
         186	1	62	5	0.0	156.39399719	24.47074442	-38.24988504
         187	1	63	1	0.0	157.18899536	22.28499985	-41.99399948
         188	1	63	3	0.0	156.6499939	22.93700027	-44.22499847
         189	1	63	4	0.0	156.69599915	20.93799973	-41.36399841

Bond Coeffs

           1	60	3.816
           2	60	2.40
           3	60	2.76
           4	60	1.53
           5	60	1.09
Bonds

           1	2	1	2
           2	4	1	3
           3	1	1	4
           4	3	2	4
           5	2	4	5
           6	4	4	6
           7	1	4	7
           8	3	5	7
           9	2	7	8
          10	4	7	9
          11	1	7	10
          12	3	8	10
          13	2	10	11
          14	4	10	12
          15	1	10	13
          16	3	11	13
          17	2	13	14
          18	4	13	15
          19	1	13	16
          20	3	14	16
          21	2	16	17
          22	4	16	18
          23	1	16	19
          24	3	17	19
          25	2	19	20
          26	4	19	21
          27	1	19	22
          28	3	20	22
          29	2	22	23
          30	4	22	24
          31	1	22	25
          32	3	23	25
          33	2	25	26
          34	4	25	27
          35	1	25	28
          36	3	26	28
          37	2	28	29
          38	4	28	30
          39	1	28	31
          40	3	29	31
          41	2	31	32
          42	4	31	33
          43	1	31	34
          44	3	32	34
          45	2	34	35
          46	4	34	36
          47	1	34	37
          48	3	35	37
          49	2	37	38
          50	4	37	39
          51	1	37	40
          52	3	38	40
          53	2	40	41
          54	5	40	42
          55	1	40	43
          56	3	41	43
          57	2	43	44
          58	4	43	45
          59	1	43	46
          60	3	44	46
          61	2	46	47
          62	4	46	48
          63	1	46	49
          64	3	47	49
          65	2	49	50
          66	4	49	51
          67	1	49	52
          68	3	50	52
          69	2	52	53
          70	4	52	54
          71	1	52	55
          72	3	53	55
          73	2	55	56
          74	4	55	57
          75	1	55	58
          76	3	56	58
          77	2	58	59
          78	4	58	60
          79	1	58	61
          80	3	59	61
          81	2	61	62
          82	4	61	63
          83	1	61	64
          84	3	62	64
          85	2	64	65
          86	4	64	66
          87	1	64	67
          88	3	65	67
          89	2	67	68
          90	4	67	69
          91	1	67	70
          92	3	68	70
          93	2	70	71
          94	4	70	72
          95	1	70	73
          96	3	71	73
          97	2	73	74
          98	5	73	75
          99	1	73	76
         100	3	74	76
         101	2	76	77
         102	4	76	78
         103	1	76	79
         104	3	77	79
         105	2	79	80
         106	4	79	81
         107	1	79	82
         108	3	80	82
         109	2	82	83
         110	4	82	84
         111	1	82	85
         112	3	83	85
         113	2	85	86
         114	4	85	87
         115	1	85	88
         116	3	86	88
         117	2	88	89
         118	4	88	90
         119	1	88	91
         120	3	89	91
         121	2	91	92
         122	4	91	93
         123	1	91	94
         124	3	92	94
         125	2	94	95
         126	4	94	96
         127	1	94	97
         128	3	95	97
         129	2	97	98
         130	4	97	99
         131	1	97	100
         132	3	98	100
         133	2	100	101
         134	4	100	102
         135	1	100	103
         136	3	101	103
         137	2	103	104
         138	4	103	105
         139	1	103	106
         140	3	104	106
         141	2	106	107
         142	4	106	108
         143	1	106	109
         144	3	107	109
         145	2	109	110
         146	5	109	111
         147	1	109	112
         148	3	110	112
         149	2	112	113
         150	4	112	114
         151	1	112	115
         152	3	113	115
         153	2	115	116
         154	4	115	117
         155	1	115	118
         156	3	116	118
         157	2	118	119
         158	4	118	120
         159	1	118	121
         160	3	119	121
         161	2	121	122
         162	4	121	123
         163	1	121	124
         164	3	122	124
         165	2	124	125
         166	4	124	126
         167	1	124	127
         168	3	125	127
         169	2	127	128
         170	4	127	129
         171	1	127	130
         172	3	128	130
         173	2	130	131
         174	4	130	132
         175	1	130	133
         176	3	131	133
         177	2	133	134
         178	4	133	135
         179	1	133	136
         180	3	134	136
         181	2	136	137
         182	4	136	138
         183	1	136	139
         184	3	137	139
         185	2	139	140
         186	4	139	141
         187	1	139	142
         188	3	140	142
         189	2	142	143
         190	4	142	144
         191	1	142	145
         192	3	143	145
         193	2	145	146
         194	4	145	147
         195	1	145	148
         196	3	146	148
         197	2	148	149
         198	4	148	150
         199	1	148	151
         200	3	149	151
         201	2	151	152
         202	4	151	153
         203	1	151	154
         204	3	152	154
         205	2	154	155
         206	4	154	156
         207	1	154	157
         208	3	155	157
         209	2	157	158
         210	5	157	159
         211	1	157	160
         212	3	158	160
         213	2	160	161
         214	4	160	162
         215	1	160	163
         216	3	161	163
         217	2	163	164
         218	4	163	165
         219	1	163	166
         220	3	164	166
         221	2	166	167
         222	4	166	168
         223	1	166	169
         224	3	167	169
         225	2	169	170
         226	4	169	171
         227	1	169	172
         228	3	170	172
         229	2	172	173
         230	4	172	174
         231	1	172	175
         232	3	173	175
         233	2	175	176
         234	4	175	177
         235	1	175	178
         236	3	176	178
         237	2	178	179
         238	4	178	180
         239	1	178	181
         240	3	179	181
         241	2	181	182
         242	4	181	183
         243	1	181	184
         244	3	182	184
         245	2	184	185
         246	5	184	186
         247	1	184	187
         248	3	185	187
         249	2	187	188
         250	4	187	189

