LAMMPS protain data file

          56  atoms
           0  bonds
           0  angles
           0  dihedrals
           0  impropers

           1  atom types
           0  bond types
           0  angle types
           0  dihedral types
           0  improper types

-50.0	50.0	xlo xhi
-50.0	50.0	ylo yhi
-50.0	50.0	zlo zhi

Masses

           1	118.0

Atoms

           1	1	1	1.438	0.0	0.0
           2	2	1	2.59378761	-3.45591638	-1.18385387
           3	3	1	6.01734262	-4.69760916	-2.37472881
           4	4	1	7.22169708	-6.59011248	-5.48096037
           5	5	1	8.87240897	-9.62665998	-3.82710351
           6	6	1	10.34008593	-10.51939563	-7.25196269
           7	7	1	10.33682254	-8.96996002	-10.75623888
           8	8	1	7.60390973	-11.01220248	-12.50012716
           9	9	1	9.0184166	-10.84110498	-16.05689661
          10	10	1	5.64163557	-11.12046167	-17.84575735
          11	11	1	6.02951136	-11.618081	-21.62499542
          12	12	1	2.75113842	-10.33605182	-23.13806681
          13	13	1	1.43880744	-6.7506337	-22.8166989
          14	14	1	-1.814449	-8.1478655	-21.35219256
          15	15	1	-0.04960208	-8.52674121	-17.97247637
          16	16	1	2.55701835	-5.93807855	-16.88386783
          17	17	1	5.73531788	-7.32945919	-15.25808033
          18	18	1	6.23146011	-5.52296347	-11.91575642
          19	19	1	9.11219362	-5.95328085	-9.42639619
          20	20	1	9.76293596	-6.48860109	-5.68865895
          21	21	1	10.06003154	-3.35124818	-3.50933246
          22	22	1	7.76115944	-1.28099071	-5.76984879
          23	23	1	4.49105457	0.05513004	-4.28596588
          24	24	1	1.28943537	-1.0618057	-6.07000682
          25	25	1	-2.40905998	-0.34393402	-5.37250745
          26	26	1	-4.43066204	-3.5652527	-5.83828005
          27	27	1	-7.63867995	-2.89428424	-7.82300559
          28	28	1	-10.03221839	-5.88552976	-7.88732448
          29	29	1	-10.00176944	-9.7123348	-7.69931101
          30	30	1	-9.49898049	-10.58875462	-4.00339372
          31	31	1	-8.98247013	-14.35430231	-4.48772895
          32	32	1	-5.59744015	-15.55081093	-5.82588147
          33	33	1	-5.48977097	-15.26297382	-9.64507905
          34	34	1	-4.84845908	-12.22509683	-11.89023727
          35	35	1	-6.16220239	-8.87427773	-10.57615855
          36	36	1	-5.64729716	-5.7919218	-12.7930635
          37	37	1	-3.70081253	-2.93616976	-11.13879906
          38	38	1	-3.20490931	0.61984617	-12.47653734
          39	39	1	0.08660689	2.50304269	-11.9286277
          40	40	1	-0.4382156	6.09202441	-10.69392751
          41	41	1	2.86206084	7.28115287	-12.23498621
          42	42	1	2.20173143	6.99518589	-15.9983492
          43	43	1	-1.22863947	5.28981602	-15.92776532
          44	44	1	-0.64755894	2.02610525	-17.84902802
          45	45	1	-2.81001386	-1.10186228	-17.37964455
          46	46	1	-1.08582901	-4.44336148	-16.64324611
          47	47	1	-2.49008046	-7.70775881	-15.2105909
          48	48	1	-0.33792376	-8.34461819	-12.10521738
          49	49	1	-0.55168843	-11.97127215	-10.8876794
          50	50	1	-2.0201208	-12.01430059	-7.34895535
          51	51	1	0.71031191	-14.45971301	-6.23297673
          52	52	1	3.2463024	-12.00201586	-7.71931111
          53	53	1	1.75286563	-8.92723173	-5.98839743
          54	54	1	0.82272941	-7.90487274	-2.41483594
          55	55	1	-0.83790275	-4.90223175	-0.70979609
          56	56	1	2.45796671	-3.5074861	0.65864902

