LAMMPS protain data file

          78  atoms
         102  bonds
           0  angles
           0  dihedrals
           0  impropers

           5  atom types
           5  bond types
           0  angle types
           0  dihedral types
           0  improper types

-100.0	100.0	xlo xhi
-100.0	100.0	ylo yhi
-100.0	100.0	zlo zhi

Masses

           1	27.0
           2	14.0
           3	28.0
           4	60.0
           5	60.0

Atoms

           1	1	1	43.19800186	5.46199989	36.83100128
           2	1	3	42.19400024	6.45699978	34.85100174
           3	1	4	44.66600037	5.30999994	36.26100159
           4	2	1	41.02899933	8.56700039	36.17900085
           5	2	3	39.11600113	7.21500015	36.61199951
           6	2	5	41.95600128	9.33099737	33.54702653
           7	3	1	37.68500137	7.97300005	34.40200043
           8	3	3	38.65599823	7.77199984	32.25799942
           9	3	4	36.62900162	9.07400036	34.45000076
          10	4	1	36.72000122	5.5619998	31.58799934
          11	4	3	35.32899857	5.50899982	29.64999962
          12	4	5	36.92100143	4.29159086	28.8883659
          13	5	1	33.37799835	7.046	30.8239994
          14	5	3	33.58499908	9.21000004	31.98500061
          15	5	4	32.20700073	6.30800009	31.52099991
          16	6	1	32.32699966	10.75300026	30.25499916
          17	6	3	30.66200066	10.43099976	31.88699913
          18	6	5	32.48300171	11.14590089	27.8438528
          19	7	1	29.85700035	13.09000015	32.06000137
          20	7	3	28.24900055	11.83600044	30.81999969
          21	7	5	30.99699974	13.2652248	30.75693041
          22	8	1	26.59900093	11.39999962	33.23400116
          23	8	3	25.625	13.53800011	32.63800049
          24	8	4	26.31900024	10.92199993	34.7120018
          25	9	1	23.10499954	12.68900013	32.1969986
          26	9	3	22.72200012	12.81099987	34.54100037
          27	9	5	24.22999954	12.30834339	29.0814355
          28	10	1	20.89500046	15.13799953	34.13199997
          29	10	3	18.85000038	14.94900036	35.40800095
          30	10	4	20.81500053	16.49099922	33.37200165
          31	11	1	17.88800049	12.75199986	33.88499832
          32	11	3	19.24799919	10.7840004	33.38800049
          33	11	5	19.12599945	12.13734295	32.05389107
          34	12	1	17.03100014	8.96000004	33.92699814
          35	12	3	14.85099983	8.89500046	32.81600189
          36	12	4	16.98399925	8.46199989	35.37900162
          37	13	1	15.19999981	6.37799978	31.79400063
          38	13	3	16.2840004	4.23699999	32.20700073
          39	13	5	16.12400055	6.23561796	29.09831203
          40	14	1	14.71899986	2.84200001	30.35300064
          41	14	3	13.7840004	3.16599989	28.11499977
          42	14	5	14.64900017	1.56557471	29.04898797
          43	15	1	14.48799992	0.43000001	27.45800018
          44	15	3	14.58199978	-1.602	28.72999954
          45	15	4	15.88899994	0.39899999	26.72100067
          46	16	1	12.59700012	-2.98300004	27.23500061
          47	16	3	13.15699959	-5.00099993	28.48200035
          48	16	4	11.75199986	-3.30200005	25.93000031
          49	17	1	15.88000011	-5.0710001	27.68499947
          50	17	3	16.8220005	-6.00299978	29.66799927
          51	17	4	17.1420002	-4.62099981	27.02000046
          52	18	1	15.2840004	-4.47900009	31.54400063
          53	18	3	13.79599953	-2.58400011	31.51099968
          54	18	4	16.59499931	-4.07999992	32.18999863
          55	19	1	12.41100025	-3.2809999	34.07300186
          56	19	3	11.97399998	-1.34099996	35.39699936
          57	19	4	11.52200031	-4.37400007	34.74499893
          58	20	1	14.79899979	-0.90700001	35.93500137
          59	20	3	14.93900013	0.40599999	33.85599899
          60	20	4	16.11899948	-1.403	36.55699921
          61	21	1	15.59200001	2.81100011	35.26300049
          62	21	3	17.54599953	2.95900011	36.68099976
          63	21	4	14.47700024	3.7019999	35.76399994
          64	22	1	19.13599968	4.2249999	34.62200165
          65	22	3	18.6079998	6.09399986	33.27299881
          66	22	4	19.86100006	3.20799994	33.68299866
          67	23	1	20.93700027	7.58400011	34.08200073
          68	23	3	21.77599907	6.69399977	32.06399918
          69	23	4	22.24099922	7.93900013	34.98899841
          70	24	1	20.43499947	8.71199989	30.39299965
          71	24	3	20.77099991	7.36299992	28.44499969
          72	24	4	21.72299957	9.54899979	29.92499924
          73	25	1	19.51099968	5.01399994	29.6989994
          74	25	3	20.95499992	3.49699998	28.42700005
          75	25	4	18.44000053	4.96400023	28.62899971
          76	26	1	23.37599945	4.35200024	29.72100067
          77	26	3	23.63800049	2.13899994	30.2689991
          78	26	4	24.2329998	5.67500019	29.81900024

Bond Coeffs

           1	10	3.77
           2	10	2.41
           3	10	2.50
           4	10	1.54
           5	10	1.54
Bonds

           1	2	1	2
           2	4	1	3
           3	1	1	4
           4	3	2	4
           5	2	4	5
           6	5	4	6
           7	1	4	7
           8	3	5	7
           9	2	7	8
          10	4	7	9
          11	1	7	10
          12	3	8	10
          13	2	10	11
          14	5	10	12
          15	1	10	13
          16	3	11	13
          17	2	13	14
          18	4	13	15
          19	1	13	16
          20	3	14	16
          21	2	16	17
          22	5	16	18
          23	1	16	19
          24	3	17	19
          25	2	19	20
          26	5	19	21
          27	1	19	22
          28	3	20	22
          29	2	22	23
          30	4	22	24
          31	1	22	25
          32	3	23	25
          33	2	25	26
          34	5	25	27
          35	1	25	28
          36	3	26	28
          37	2	28	29
          38	4	28	30
          39	1	28	31
          40	3	29	31
          41	2	31	32
          42	5	31	33
          43	1	31	34
          44	3	32	34
          45	2	34	35
          46	4	34	36
          47	1	34	37
          48	3	35	37
          49	2	37	38
          50	5	37	39
          51	1	37	40
          52	3	38	40
          53	2	40	41
          54	5	40	42
          55	1	40	43
          56	3	41	43
          57	2	43	44
          58	4	43	45
          59	1	43	46
          60	3	44	46
          61	2	46	47
          62	4	46	48
          63	1	46	49
          64	3	47	49
          65	2	49	50
          66	4	49	51
          67	1	49	52
          68	3	50	52
          69	2	52	53
          70	4	52	54
          71	1	52	55
          72	3	53	55
          73	2	55	56
          74	4	55	57
          75	1	55	58
          76	3	56	58
          77	2	58	59
          78	4	58	60
          79	1	58	61
          80	3	59	61
          81	2	61	62
          82	4	61	63
          83	1	61	64
          84	3	62	64
          85	2	64	65
          86	4	64	66
          87	1	64	67
          88	3	65	67
          89	2	67	68
          90	4	67	69
          91	1	67	70
          92	3	68	70
          93	2	70	71
          94	4	70	72
          95	1	70	73
          96	3	71	73
          97	2	73	74
          98	4	73	75
          99	1	73	76
         100	3	74	76
         101	2	76	77
         102	4	76	78

