LAMMPS protain data file

         204  atoms
         268  bonds
           0  angles
           0  dihedrals
           0  impropers

           5  atom types
           5  bond types
           0  angle types
           0  dihedral types
           0  improper types

-1000.0	1000.0	xlo xhi
-1000.0	1000.0	ylo yhi
-1000.0	1000.0	zlo zhi

Masses

           1	27.0
           2	14.0
           3	28.0
           4	60.0
           5	2.0

Atoms

           1	1	1	1	0.0	0.1	18.8560009	-6.67000008
           2	1	1	3	0.0	-0.094	17.12599945	-8.35200024
           3	1	1	4	0.0	0.53299999	19.93600082	-7.671
           4	1	2	1	0.0	-2.82399988	16.47599983	-7.34700012
           5	1	2	3	0.0	-2.56299996	17.16399956	-9.65400028
           6	1	2	4	0.0	-4.15199995	17.09799957	-6.91499996
           7	1	3	1	0.0	-3.34500003	14.52499962	-10.64299965
           8	1	3	3	0.0	-1.50699997	13.09300041	-11.2489996
           9	1	3	4	0.0	-4.13700008	15.42500019	-11.63399982
          10	1	4	1	0.0	0.28200001	15.30599976	-11.57699966
          11	1	4	3	0.0	1.98500001	13.73700047	-10.90699959
          12	1	4	4	0.0	0.70499998	16.77300072	-11.71899986
          13	1	5	1	0.0	1.41999996	13.92500019	-8.14700031
          14	1	5	3	0.0	2.22399998	11.65699959	-8.27600002
          15	1	5	4	0.0	0.73699999	14.31299973	-6.82999992
          16	1	6	1	0.0	-0.31600001	10.62100029	-8.99499989
          17	1	6	3	0.0	1.16400003	9.02499962	-9.97399998
          18	1	6	4	0.0	-1.81700003	10.59899998	-9.31400013
          19	1	7	1	0.0	1.51900005	10.56400013	-12.36800003
          20	1	7	3	0.0	3.50999999	9.22799969	-12.25800037
          21	1	7	4	0.0	1.47599995	11.72099972	-13.3760004
          22	1	8	1	0.0	4.87599993	10.92700005	-10.49600029
          23	1	8	3	0.0	5.86999989	8.81799984	-10.00800037
          24	1	8	4	0.0	5.22399998	12.13500023	-9.61299992
          25	1	9	1	0.0	4.10900021	8.18299961	-7.92399979
          26	1	9	3	0.0	5.00199986	6.12599993	-8.74699974
          27	1	9	4	0.0	2.977	8.23499966	-6.88399982
          28	1	10	1	0.0	2.96399999	5.94899988	-10.78800011
          29	1	10	3	0.0	4.80100012	4.5	-11.28800011
          30	1	10	4	0.0	1.98599994	6.48799992	-11.82800007
          31	1	11	1	0.0	6.19799995	6.61800003	-12.61999989
          32	1	11	3	0.0	8.1260004	5.24700022	-12.31599998
          33	1	11	4	0.0	6.48799992	7.93200016	-13.37100029
          34	1	12	1	0.0	8.46399975	6.06699991	-9.61999989
          35	1	12	3	0.0	9.54800034	3.88599992	-9.48700047
          36	1	12	4	0.0	8.40799999	6.80999994	-8.2840004
          37	1	13	1	0.0	6.96199989	2.56900001	-9.28299999
          38	1	13	3	0.0	7.41800022	0.60399997	-10.6079998
          39	1	13	4	0.0	5.55800009	2.54900002	-8.70400047
          40	1	14	1	0.0	6.49399996	1.87899995	-13.06700039
          41	1	14	3	0.0	7.99800014	2.33800006	-14.94999981
          42	1	14	4	0.0	5.42600012	2.69099998	-13.81999969
          43	1	15	1	0.0	10.1789999	1.02400005	-13.64999962
          44	1	15	3	0.0	10.91899967	1.00600004	-15.94499969
          45	1	15	4	0.0	10.9659996	0.078	-12.74199963
          46	1	16	1	0.0	9.55200005	-1.43099999	-16.55900002
          47	1	16	3	0.0	8.34000015	-1.44799995	-18.64699936
          48	1	16	4	0.0	8.99600029	-2.82500005	-16.20999908
          49	1	17	1	0.0	8.02799988	1.45799994	-18.65999985
          50	1	17	3	0.0	6.63199997	1.449	-20.63899994
          51	1	17	4	0.0	9.25199986	1.84399998	-19.51099968
          52	1	18	1	0.0	4.67799997	-0.189	-19.47699928
          53	1	18	3	0.0	2.35899997	0.234	-19.89699936
          54	1	18	4	0.0	4.45599985	-1.62300003	-18.97200012
          55	1	19	1	0.0	2.25900006	2.56800008	-18.29599953
          56	1	19	3	0.0	0.115	2.1099999	-17.27899933
          57	1	19	5	0.0	3.45099998	3.61759636	-17.38870326
          58	1	20	1	0.0	1.18900001	0.044	-15.57900047
          59	1	20	3	0.0	3.15300012	0.45300001	-14.22099972
          60	1	20	4	0.0	0.93199998	-1.35500002	-16.14699936
          61	1	21	1	0.0	2.22099996	-1.40999997	-12.18999958
          62	1	21	3	0.0	0.764	-3.34200001	-12.22200012
          63	1	21	4	0.0	1.92200005	-0.61400002	-10.91499996
          64	1	22	1	0.0	2.90199995	-5.13700008	-11.55200005
          65	1	22	3	0.0	3.63700008	-4.69799995	-9.32400036
          66	1	22	4	0.0	3.84800005	-5.92500019	-12.46199989
          67	1	23	1	0.0	3.0769999	-7.36600018	-8.46100044
          68	1	23	3	0.0	3.98000002	-6.46000004	-6.43900013
          69	1	23	4	0.0	2.90100002	-8.9090004	-8.52900028
          70	1	24	1	0.0	6.64699984	-6.42500019	-7.32299995
          71	1	24	3	0.0	7.079	-4.47300005	-5.9289999
          72	1	24	4	0.0	7.98799992	-6.86299992	-7.97100019
          73	1	25	1	0.0	5.9749999	-2.7349999	-7.97900009
          74	1	25	3	0.0	4.9000001	-1.38900006	-6.29699993
          75	1	25	4	0.0	5.65799999	-2.33299994	-9.41100025
          76	1	26	1	0.0	2.63199997	-3.08299994	-6.1170001
          77	1	26	3	0.0	2.81399989	-2.68199992	-3.7650001
          78	1	26	4	0.0	1.51100004	-4.06500006	-6.48199987
          79	1	27	1	0.0	4.87099981	-4.67500019	-3.44300008
          80	1	27	3	0.0	5.32999992	-3.03399992	-1.78900003
          81	1	27	5	0.0	4.03100014	-5.42316978	-2.43258068
          82	1	28	1	0.0	6.87799978	-1.39999998	-3.50500011
          83	1	28	3	0.0	6.38800001	0.60600001	-2.296
          84	1	28	4	0.0	7.75299978	-0.91299999	-4.65899992
          85	1	29	1	0.0	3.64599991	0.66799998	-2.98900008
          86	1	29	3	0.0	3.10500002	0.92000002	-0.648
          87	1	29	4	0.0	2.48300004	0.85399997	-3.9460001
          88	1	30	1	0.0	2.15499997	-1.73899996	-0.36300001
          89	1	30	3	0.0	2.875	-2.47000003	1.84399998
          90	1	30	4	0.0	1.33800006	-2.9920001	-0.69400001
          91	1	31	1	0.0	5.52299976	-1.34399998	1.26800001
          92	1	31	3	0.0	5.34100008	1.06200004	1.52699995
          93	1	31	4	0.0	6.8039999	-1.08399999	0.456
          94	1	32	1	0.0	4.19399977	0.79000002	4.11800003
          95	1	32	3	0.0	5.38899994	1.46500003	6.16300011
          96	1	32	4	0.0	3.046	0.33899999	5.01900005
          97	1	33	1	0.0	7.625	0.43900001	4.1170001
          98	1	33	3	0.0	8.14599991	-0.257	6.37699986
          99	1	33	4	0.0	8.89999962	1.16299999	3.68499994
         100	1	34	1	0.0	6.92199993	-2.82500005	5.875
         101	1	34	3	0.0	4.5250001	-3.22099996	5.8829999
         102	1	34	5	0.0	7.29199982	-3.78731842	6.12567517
         103	2	35	1	0.0	2.72900009	-13.68900013	3.06100011
         104	2	35	3	0.0	3.48300004	-15.94299984	3.43400002
         105	2	35	4	0.0	3.27900004	-12.32999992	2.59299994
         106	2	36	1	0.0	4.69000006	-15.56499958	0.58499998
         107	2	36	3	0.0	2.56200004	-16.04100037	-0.45199999
         108	2	36	4	0.0	4.85699987	-17.07999992	0.82800001
         109	2	37	1	0.0	2.7980001	-13.44699955	-1.99399996
         110	2	37	3	0.0	0.66299999	-12.53999996	-2.54500008
         111	2	37	4	0.0	3.40199995	-13.81400013	-3.36199999
         112	2	38	1	0.0	-0.81	-14.70499992	-1.36800003
         113	2	38	3	0.0	-2.44099998	-13.00599957	-1.847
         114	2	38	4	0.0	-1.05299997	-15.86800003	-0.398
         115	2	39	1	0.0	-1.98099995	-11.54300022	0.52399999
         116	2	39	3	0.0	-2.91400003	-9.93799973	-1.01199996
         117	2	39	4	0.0	-1.36199999	-11.03299999	1.82799995
         118	2	40	1	0.0	-0.41600001	-9.23799992	-2.12400007
         119	2	40	3	0.0	-1.70700002	-8.64299965	-4.04099989
         120	2	40	4	0.0	1.09399998	-9.13799953	-2.34100008
         121	2	41	1	0.0	-1.81700003	-11.30500031	-5.04500008
         122	2	41	3	0.0	-3.82599998	-10.3380003	-5.94700003
         123	2	41	4	0.0	-1.64400005	-12.82499981	-5.17799997
         124	2	42	1	0.0	-5.33599997	-10.77299976	-3.58999991
         125	2	42	3	0.0	-6.40999985	-8.77299976	-4.33099985
         126	2	42	4	0.0	-5.75400019	-11.38500023	-2.25600004
         127	2	43	1	0.0	-4.70200014	-7.03700018	-2.95000005
         128	2	43	3	0.0	-5.50899982	-5.73199987	-4.79799986
         129	2	43	4	0.0	-3.62299991	-6.4829998	-2.01699996
         130	2	44	1	0.0	-3.41899991	-6.7329998	-6.53800011
         131	2	44	3	0.0	-5.22300005	-5.86600018	-7.84100008
         132	2	44	4	0.0	-2.38100004	-7.7329998	-7.0619998
         133	2	45	1	0.0	-6.58799982	-8.41100025	-7.73999977
         134	2	45	3	0.0	-8.39900017	-7.0170002	-8.40799999
         135	2	45	4	0.0	-6.89699984	-9.87899971	-7.39699984
         136	2	46	1	0.0	-8.89999962	-6.1869998	-5.72599983
         137	2	46	3	0.0	-9.89900017	-4.23699999	-6.80700016
         138	2	46	4	0.0	-8.96000004	-6.08900023	-4.204
         139	2	47	1	0.0	-7.28399992	-3.08400011	-7.29400015
         140	2	47	3	0.0	-7.66099977	-2.21199989	-9.52200031
         141	2	47	4	0.0	-5.86600018	-2.78299999	-6.83400011
         142	2	48	1	0.0	-6.87799978	-4.75600004	-10.7670002
         143	2	48	3	0.0	-8.5170002	-6.15199995	-11.92099953
         144	2	48	4	0.0	-5.88899994	-5.92999983	-10.87899971
         145	2	49	1	0.0	-10.56000042	-4.10500002	-11.56799984
         146	2	49	3	0.0	-11.54500008	-5.50500011	-13.25599957
         147	2	49	4	0.0	-11.12699986	-2.70300007	-11.41899967
         148	2	50	1	0.0	-10.03999996	-4.43599987	-15.37800026
         149	2	50	3	0.0	-8.88700008	-5.84800005	-16.96299934
         150	2	50	4	0.0	-9.71100044	-3.19300008	-16.2310009
         151	2	51	1	0.0	-8.44400024	-7.9289999	-14.92399979
         152	2	51	3	0.0	-6.93499994	-9.36400032	-16.15099907
         153	2	51	4	0.0	-9.65200043	-8.83399963	-15.22500038
         154	2	52	1	0.0	-5.31099987	-7.18200016	-16.99399948
         155	2	52	3	0.0	-2.95799994	-7.63500023	-17.13299942
         156	2	52	4	0.0	-5.17000008	-5.77400017	-17.58600044
         157	2	53	1	0.0	-2.76600003	-8.53899956	-14.43200016
         158	2	53	3	0.0	-0.66500002	-7.51000023	-13.86800003
         159	2	53	5	0.0	-3.97900009	-9.09838842	-12.99705033
         160	2	54	1	0.0	-1.76300001	-4.8579998	-13.86600018
         161	2	54	3	0.0	-3.77399993	-4.23799992	-12.67399979
         162	2	54	4	0.0	-1.50699997	-4.11800003	-15.18500042
         163	2	55	1	0.0	-2.69899988	-1.58299994	-12.14599991
         164	2	55	3	0.0	-1.26600003	-0.20299999	-13.52600002
         165	2	55	4	0.0	-2.34200001	-1.34000003	-10.67800045
         166	2	56	1	0.0	-3.32800007	1.72399998	-14.04500008
         167	2	56	3	0.0	-4.09100008	2.81500006	-12.05700016
         168	2	56	4	0.0	-4.22900009	1.75	-15.27700043
         169	2	57	1	0.0	-3.47199988	5.40299988	-13.11299992
         170	2	57	3	0.0	-4.29699993	6.01200008	-10.95300007
         171	2	57	4	0.0	-3.26900005	6.53200006	-14.15600014
         172	2	58	1	0.0	-6.96999979	5.51900005	-11.49699974
         173	2	58	3	0.0	-7.42999983	4.8130002	-9.22399998
         174	2	58	4	0.0	-8.36200047	5.76300001	-12.09599972
         175	2	59	1	0.0	-6.4920001	2.14100003	-9.83399963
         176	2	59	3	0.0	-5.49300003	2.20300007	-7.64400005
         177	2	59	4	0.0	-6.15100002	0.93699998	-10.69299984
         178	2	60	1	0.0	-3.171	3.56800008	-8.51900005
         179	2	60	3	0.0	-3.329	4.69999981	-6.42000008
         180	2	60	4	0.0	-2.0079999	4.06099987	-9.38399982
         181	2	61	1	0.0	-5.29099989	6.56099987	-7.37599993
         182	2	61	3	0.0	-5.70800018	6.20900011	-5.04699993
         183	2	61	5	0.0	-4.49300003	7.47520941	-6.91516041
         184	2	62	1	0.0	-7.46799994	4.01900005	-5.50400019
         185	2	62	3	0.0	-7.05499983	3.13100004	-3.31999993
         186	2	62	4	0.0	-8.42700005	3.05999994	-6.20900011
         187	2	63	1	0.0	-4.32999992	2.50699997	-3.81100011
         188	2	63	3	0.0	-4.03999996	3.76600003	-1.76800001
         189	2	63	4	0.0	-3.18899989	1.75399995	-4.46799994
         190	2	64	1	0.0	-2.64199996	5.89400005	-3.07200003
         191	2	64	3	0.0	-3.11999989	7.78800011	-1.66499996
         192	2	64	4	0.0	-1.74199998	6.64599991	-4.05499983
         193	2	65	1	0.0	-5.98899984	7.24399996	-1.699
         194	2	65	3	0.0	-5.42199993	8.7670002	0.076
         195	2	65	4	0.0	-7.22700024	6.3210001	-1.73800004
         196	2	66	1	0.0	-5.19099998	6.73099995	2.01600003
         197	2	66	3	0.0	-3.87299991	8.35599995	3.22099996
         198	2	66	4	0.0	-5.17700005	5.35599995	2.69799995
         199	2	67	1	0.0	-1.57599998	7.89099979	1.54100001
         200	2	67	3	0.0	-0.61000001	9.4829998	0.005
         201	2	67	4	0.0	-0.60399997	6.88100004	0.92299998
         202	2	68	1	0.0	-2.43600011	11.57600021	0.88300002
         203	2	68	3	0.0	-3.0999999	11.66899967	-1.45700002
         204	2	68	5	0.0	-2.41499996	11.98116858	1.44641827

Bond Coeffs

           1	20	3.816
           2	20	2.40
           3	20	2.76
           4	20	1.53
           5	10	1.09
Bonds

           1	2	1	2
           2	4	1	3
           3	1	1	4
           4	3	2	4
           5	2	4	5
           6	4	4	6
           7	1	4	7
           8	3	5	7
           9	2	7	8
          10	4	7	9
          11	1	7	10
          12	3	8	10
          13	2	10	11
          14	4	10	12
          15	1	10	13
          16	3	11	13
          17	2	13	14
          18	4	13	15
          19	1	13	16
          20	3	14	16
          21	2	16	17
          22	4	16	18
          23	1	16	19
          24	3	17	19
          25	2	19	20
          26	4	19	21
          27	1	19	22
          28	3	20	22
          29	2	22	23
          30	4	22	24
          31	1	22	25
          32	3	23	25
          33	2	25	26
          34	4	25	27
          35	1	25	28
          36	3	26	28
          37	2	28	29
          38	4	28	30
          39	1	28	31
          40	3	29	31
          41	2	31	32
          42	4	31	33
          43	1	31	34
          44	3	32	34
          45	2	34	35
          46	4	34	36
          47	1	34	37
          48	3	35	37
          49	2	37	38
          50	4	37	39
          51	1	37	40
          52	3	38	40
          53	2	40	41
          54	4	40	42
          55	1	40	43
          56	3	41	43
          57	2	43	44
          58	4	43	45
          59	1	43	46
          60	3	44	46
          61	2	46	47
          62	4	46	48
          63	1	46	49
          64	3	47	49
          65	2	49	50
          66	4	49	51
          67	1	49	52
          68	3	50	52
          69	2	52	53
          70	4	52	54
          71	1	52	55
          72	3	53	55
          73	2	55	56
          74	5	55	57
          75	1	55	58
          76	3	56	58
          77	2	58	59
          78	4	58	60
          79	1	58	61
          80	3	59	61
          81	2	61	62
          82	4	61	63
          83	1	61	64
          84	3	62	64
          85	2	64	65
          86	4	64	66
          87	1	64	67
          88	3	65	67
          89	2	67	68
          90	4	67	69
          91	1	67	70
          92	3	68	70
          93	2	70	71
          94	4	70	72
          95	1	70	73
          96	3	71	73
          97	2	73	74
          98	4	73	75
          99	1	73	76
         100	3	74	76
         101	2	76	77
         102	4	76	78
         103	1	76	79
         104	3	77	79
         105	2	79	80
         106	5	79	81
         107	1	79	82
         108	3	80	82
         109	2	82	83
         110	4	82	84
         111	1	82	85
         112	3	83	85
         113	2	85	86
         114	4	85	87
         115	1	85	88
         116	3	86	88
         117	2	88	89
         118	4	88	90
         119	1	88	91
         120	3	89	91
         121	2	91	92
         122	4	91	93
         123	1	91	94
         124	3	92	94
         125	2	94	95
         126	4	94	96
         127	1	94	97
         128	3	95	97
         129	2	97	98
         130	4	97	99
         131	1	97	100
         132	3	98	100
         133	2	100	101
         134	5	100	102
         135	2	103	104
         136	4	103	105
         137	1	103	106
         138	3	104	106
         139	2	106	107
         140	4	106	108
         141	1	106	109
         142	3	107	109
         143	2	109	110
         144	4	109	111
         145	1	109	112
         146	3	110	112
         147	2	112	113
         148	4	112	114
         149	1	112	115
         150	3	113	115
         151	2	115	116
         152	4	115	117
         153	1	115	118
         154	3	116	118
         155	2	118	119
         156	4	118	120
         157	1	118	121
         158	3	119	121
         159	2	121	122
         160	4	121	123
         161	1	121	124
         162	3	122	124
         163	2	124	125
         164	4	124	126
         165	1	124	127
         166	3	125	127
         167	2	127	128
         168	4	127	129
         169	1	127	130
         170	3	128	130
         171	2	130	131
         172	4	130	132
         173	1	130	133
         174	3	131	133
         175	2	133	134
         176	4	133	135
         177	1	133	136
         178	3	134	136
         179	2	136	137
         180	4	136	138
         181	1	136	139
         182	3	137	139
         183	2	139	140
         184	4	139	141
         185	1	139	142
         186	3	140	142
         187	2	142	143
         188	4	142	144
         189	1	142	145
         190	3	143	145
         191	2	145	146
         192	4	145	147
         193	1	145	148
         194	3	146	148
         195	2	148	149
         196	4	148	150
         197	1	148	151
         198	3	149	151
         199	2	151	152
         200	4	151	153
         201	1	151	154
         202	3	152	154
         203	2	154	155
         204	4	154	156
         205	1	154	157
         206	3	155	157
         207	2	157	158
         208	5	157	159
         209	1	157	160
         210	3	158	160
         211	2	160	161
         212	4	160	162
         213	1	160	163
         214	3	161	163
         215	2	163	164
         216	4	163	165
         217	1	163	166
         218	3	164	166
         219	2	166	167
         220	4	166	168
         221	1	166	169
         222	3	167	169
         223	2	169	170
         224	4	169	171
         225	1	169	172
         226	3	170	172
         227	2	172	173
         228	4	172	174
         229	1	172	175
         230	3	173	175
         231	2	175	176
         232	4	175	177
         233	1	175	178
         234	3	176	178
         235	2	178	179
         236	4	178	180
         237	1	178	181
         238	3	179	181
         239	2	181	182
         240	5	181	183
         241	1	181	184
         242	3	182	184
         243	2	184	185
         244	4	184	186
         245	1	184	187
         246	3	185	187
         247	2	187	188
         248	4	187	189
         249	1	187	190
         250	3	188	190
         251	2	190	191
         252	4	190	192
         253	1	190	193
         254	3	191	193
         255	2	193	194
         256	4	193	195
         257	1	193	196
         258	3	194	196
         259	2	196	197
         260	4	196	198
         261	1	196	199
         262	3	197	199
         263	2	199	200
         264	4	199	201
         265	1	199	202
         266	3	200	202
         267	2	202	203
         268	5	202	204

