LAMMPS protain data file

         261  atoms
         346  bonds
           0  angles
           0  dihedrals
           0  impropers

           5  atom types
           5  bond types
           0  angle types
           0  dihedral types
           0  improper types

-100.0	100.0	xlo xhi
-100.0	100.0	ylo yhi
-100.0	100.0	zlo zhi

Masses

           1	27.0
           2	14.0
           3	28.0
           4	60.0
           5	60.0

Atoms

           1	1	1	27.96800041	31.46299934	-0.699
           2	1	3	26.23999977	29.92099953	-1.32500005
           3	1	4	28.64599991	31.61300087	0.676
           4	2	1	27.67099953	27.68000031	-0.574
           5	2	3	27.04000092	26.96899986	1.63300002
           6	2	4	28.8560009	26.71500015	-0.493
           7	3	1	24.33600044	27.40399933	1.222
           8	3	3	23.1989994	25.66500092	0.03
           9	3	4	23.22999954	28.44799995	1.05400002
          10	4	1	23.27400017	23.88400078	2.14100003
          11	4	3	21.54899979	24.80999947	3.51200008
          12	4	4	24.11599922	22.96899986	3.02699995
          13	5	1	19.57600021	23.125	2.59599996
          14	5	3	18.11899948	21.95000076	4.09299994
          15	5	4	18.68000031	22.73600006	1.41900003
          16	6	1	20.15099907	20.82999992	5.55800009
          17	6	3	22.47699928	21.05500031	6.10599995
          18	6	4	19.98699951	19.3920002	5.06899977
          19	7	1	22.03800011	20.96299934	8.85700035
          20	7	3	24.16799927	19.92099953	9.29800034
          21	7	4	21.36300087	21.02099991	10.25399971
          22	8	1	23.51099968	17.51399994	8.12800026
          23	8	3	25.28700066	16.61199951	6.78800011
          24	8	4	22.65999985	16.24699974	8.07800007
          25	9	1	25.32500076	18.68099976	4.99499989
          26	9	3	27.57900047	19.50699997	4.96500015
          27	9	4	24.64900017	19.3939991	3.82999992
          28	10	1	27.11499977	21.14299965	7.24900007
          29	10	3	27.37800026	19.71899986	9.14700031
          30	10	4	26.36100006	22.2689991	7.96199989
          31	11	1	30.08799934	20.06900024	9.32499981
          32	11	3	29.50799942	22.27700043	10.01500034
          33	11	4	31.52799988	19.8560009	8.84599972
          34	12	1	30.57699966	22.11300087	12.4989996
          35	12	3	31.04100037	24.4489994	12.20400047
          36	12	4	31.0529995	21.61400032	13.86699963
          37	13	1	33.48099899	24.02700043	10.95300007
          38	13	3	32.99599838	26.0720005	9.7869997
          39	13	4	34.74200058	23.38999939	10.39799976
          40	14	1	31.26499939	24.85899925	7.96799994
          41	14	3	29.92499924	26.8409996	7.9829998
          42	14	4	30.70299911	23.81900024	6.98999977
          43	15	1	28.29100037	26.03899956	10.05500031
          44	15	3	28.19499969	28.31999969	10.79399967
          45	15	4	27.4640007	25.19499969	11.03299999
          46	16	1	30.65800095	28.22900009	12.08300018
          47	16	3	31.12899971	30.48399925	11.36299992
          48	16	4	31.91300011	27.7329998	12.86800003
          49	17	1	31.67900085	29.75900078	8.73099995
          50	17	3	30.58799934	31.78000069	7.98500013
          51	17	4	32.17200089	28.95700073	7.5170002
          52	18	1	28.03700066	30.66399956	8.0340004
          53	18	3	26.99699974	32.66899872	8.85400009
          54	18	4	26.90699959	29.63800049	7.89099979
          55	19	1	27.88699913	32.37400055	11.43099976
          56	19	3	28.31200027	34.7179985	11.68500042
          57	19	4	28.13100052	31.67900085	12.77499962
          58	20	1	30.87000084	34.60200119	10.58600044
          59	20	3	30.65500069	36.64799881	9.32999992
          60	20	4	32.29299927	34.09600067	10.34300041
          61	21	1	29.26499939	35.47100067	7.25600004
          62	21	3	28.07500076	37.54700089	7.34800005
          63	21	4	28.71899986	34.45500183	6.25
          64	22	1	26.17399979	36.60699844	9.1239996
          65	22	3	26.25300026	38.9109993	9.76299953
          66	22	4	25.29700089	35.71900177	10.04300022
          67	23	1	28.2689991	38.57300186	11.61200047
          68	23	3	28.76199913	40.85200119	11.04899979
          69	23	4	29.38999939	38.00899887	12.48400021
          70	24	1	29.95000076	40.17300034	8.61299992
          71	24	3	28.95299911	42.22399902	7.88399982
          72	24	4	30.6970005	39.38899994	7.52699995
          73	25	1	26.6590004	41.05099869	6.94500017
          74	25	3	25.15699959	42.77899933	7.62699986
          75	25	4	25.70100021	40.0530014	6.29199982
          76	26	1	25.52799988	42.26399994	10.36699963
          77	26	3	25.16300011	44.59700012	10.80500031
          78	26	4	25.92700005	41.56100082	11.67300034
          79	27	1	27.69199944	45.39799881	10.04699993
          80	27	3	28.19499969	47.20800018	8.5539999
          81	27	4	29.11700058	45.4620018	10.63700008
          82	28	1	27.13400078	45.99200058	6.34100008
          83	28	3	25.19300079	47.11899948	7.18100023
          84	28	4	26.77599907	44.93500137	5.3119998
          85	29	1	25.3220005	49.16600037	5.26800013
          86	29	3	23.0890007	49.55899811	6.05900002
          87	29	4	25.5890007	49.88100052	3.9460001
          88	30	1	21.98900032	47.40000153	4.8119998
          89	30	3	22.80699921	45.23699951	5.43400002
          90	30	4	21.30900002	47.53499985	3.44300008
          91	31	1	20.29899979	44.26100159	6.10300016
          92	31	3	19.27099991	42.25400162	5.26599979
          93	31	4	19.22599983	44.35499954	7.19399977
          94	32	1	19.50300026	42.97200012	2.60400009
          95	32	3	19.27000046	40.59600067	2.46399999
          96	32	4	19.79299927	43.73199844	1.29900002
          97	33	1	21.94799995	40.05199814	2.44400001
          98	33	3	21.55400085	38.15000153	3.84899998
          99	33	4	23.44099998	40.0890007	2.04200006
         100	34	1	21.92200089	39.55599976	6.22200012
         101	34	3	20.54700089	37.77299881	7.04899979
         102	34	4	22.16200066	40.65100098	7.26300001
         103	35	1	18.15399933	38.99000168	6.42000008
         104	35	3	17.00300026	36.94599915	5.96199989
         105	35	4	17.06900024	40.02199936	6.10500002
         106	36	1	18.49399948	36.31700134	3.75500011
         107	36	3	18.66200066	34.04700089	4.51300001
         108	36	4	19.01600075	36.54999924	2.30800009
         109	37	1	21.16200066	34.31900024	5.59200001
         110	37	3	20.47500038	32.80099869	7.32800007
         111	37	4	22.60199928	34.75999832	5.8920002
         112	38	1	19.15699959	34.69499969	8.81900024
         113	38	3	17.55800056	33.04600143	9.53199959
         114	38	4	18.7840004	36.02399826	9.48600006
         115	39	1	16.0890007	33.10499954	7.21199989
         116	39	3	15.75	30.72500038	7.11000013
         117	39	4	15.33100033	33.66899872	6.01200008
         118	40	1	18.3029995	30.21699905	6.14499998
         119	40	3	18.45899963	28.32299995	7.63199997
         120	40	4	19.5	30.39999962	5.21700001
         121	41	1	19.86800003	29.72200012	9.58199978
         122	41	3	18.6420002	28.18799973	10.96800041
         123	41	4	20.57600021	30.83399963	10.36600018
         124	42	1	16.32999992	29.70100021	10.92099953
         125	42	3	15.21199989	27.60199928	11.17199993
         126	42	4	15.2869997	30.81900024	10.74400043
         127	43	1	15.17399979	27.0510006	8.47500038
         128	43	3	15.46199989	24.69199944	8.71100044
         129	43	4	14.81900024	27.34499931	7.0170002
         130	44	1	18.1590004	24.70800018	8.60299969
         131	44	3	18.47500038	22.9829998	10.23200035
         132	44	4	19.5529995	24.91699982	7.95300007
         133	45	1	18.45299911	24.65600014	12.41800022
         134	45	3	17.1079998	23.28000069	13.87300014
         135	45	4	19.0510006	25.7859993	13.29800034
         136	46	1	14.68099976	24.40099907	13.07600021
         137	46	3	13.3760004	24.27099991	15.09300041
         138	46	4	14.42099953	22.92099953	12.80700016
         139	47	1	15.1789999	25.77700043	16.59700012
         140	47	3	13.96899986	27.72900009	15.90799999
         141	47	4	16.47999954	26.38599968	17.125
         142	48	1	12.02900028	27.52899933	17.89999962
         143	48	3	11.66600037	29.89100075	18.05900002
         144	48	4	11.22099972	26.84900093	19.00399971
         145	49	1	14.14000034	30.39999962	19.26000023
         146	49	3	14.34200001	32.52500153	18.15500069
         147	49	4	15.44400024	30.23200035	20.05699921
         148	50	1	14.96100044	31.47200012	15.71500015
         149	50	3	17.21800041	31.87999916	16.38800049
         150	50	5	14.70100021	29.68757231	13.51473935
         151	51	1	17.31399918	34.4129982	15.32499981
         152	51	3	18.93099976	35.06700134	16.97699928
         153	51	4	17.01300049	35.74599838	14.60000038
         154	52	1	17.18300056	34.85599899	19.10700035
         155	52	3	19.1590004	34.62799835	20.44400024
         156	52	4	16.0170002	34.45899963	20.01600075
         157	53	1	19.98600006	32.27799988	19.2840004
         158	53	3	22.24500084	32.97900009	19.70700073
         159	53	4	20.07799911	30.97299957	18.47900009
         160	54	1	22.26799965	34.86700058	17.68099976
         161	54	3	23.24300003	36.64400101	18.9640007
         162	54	4	22.30599976	35.11999893	16.14699936
         163	55	1	20.90800095	38.17200089	19.00699997
         164	55	3	20.59199905	39.24599838	21.12999916
         165	55	4	19.95599937	38.99900055	18.14599991
         166	56	1	19.45499992	37.07899857	22.3560009
         167	56	3	18.99399948	34.98799896	23.48600006
         168	56	4	17.94400024	37.29600143	22.40699959
         169	57	1	21.71699905	34.25099945	23.6420002
         170	57	3	21.01300049	34.86100006	25.84600067
         171	57	4	23.22900009	34.47600174	23.57799911
         172	58	1	20.7140007	32.22600174	26.67900085
         173	58	3	23.04199982	32.1570015	27.24699974
         174	58	4	20.32600021	30.74500084	26.6420002
         175	59	1	22.6590004	33.23300171	29.79400063
         176	59	3	24.25900078	32.04999924	31.13199997
         177	59	4	22.05999947	33.99900055	30.97500038
         178	60	1	23.45700073	29.54199982	30.29400063
         179	60	3	25.12299919	27.94300079	29.62299919
         180	60	4	22.3560009	28.47500038	30.40299988
         181	61	1	26.03199959	29.4279995	27.48200035
         182	61	3	26.46199989	31.77799988	27.44199944
         183	61	4	25.44400024	28.74699974	26.24699974
         184	62	1	28.67099953	31.5720005	25.79400063
         185	62	3	27.25600052	31.72200012	23.86199951
         186	62	4	30.03300095	31.07099915	25.31200027
         187	63	1	27.73699951	34.4469986	23.50499916
         188	63	3	29.68400002	35.28499985	22.37700081
         189	63	4	27.52700043	35.89199829	23.97100067
         190	64	1	29.87000084	33.09600067	20.6760006
         191	64	3	28.39900017	31.33399963	19.94599915
         192	64	4	31.17399979	32.61999893	21.31999969
         193	65	1	29.61199951	30.98900032	17.47900009
         194	65	3	28.85700035	28.7159996	17.65999985
         195	65	4	30.62100029	31.20199966	16.35099983
         196	66	1	30.74300003	28.00900078	19.54700089
         197	66	3	28.94599915	26.74200058	20.49500084
         198	66	4	32.04299927	27.90999985	20.33499908
         199	67	1	28.10400009	28.75600052	22.15999985
         200	67	3	25.93400002	27.80500031	21.86899948
         201	67	5	29.22699928	26.99879761	22.08737375
         202	68	1	25.53000069	28.91799927	19.37800026
         203	68	3	24.40299988	26.84700012	18.97900009
         204	68	4	25.54100037	29.85899925	18.1439991
         205	69	1	26.62800026	25.65200043	17.79800034
         206	69	3	25.4659996	23.70100021	18.5720005
         207	69	4	28.05200005	25.31999969	17.31800079
         208	70	1	26.46100044	23.93799973	21.17399979
         209	70	3	24.40200043	22.74600029	21.50200081
         210	70	4	27.18099976	24.46800041	22.42099953
         211	71	1	22.86599922	24.98800087	21.78000069
         212	71	3	21.09199905	23.61199951	20.9640007
         213	71	4	22.34799957	26.42200089	21.94300079
         214	72	1	21.8239994	23.75300026	18.34700012
         215	72	3	21.08399963	21.47299957	18.24500084
         216	72	4	22.30500031	24.29500008	16.97999954
         217	73	1	23.56599998	20.40600014	18.8220005
         218	73	3	22.0359993	18.79000092	19.71699905
         219	73	4	25.0359993	20.21899986	19.18700027
         220	74	1	22.03800011	19.9489994	22.26600075
         221	74	3	19.91600037	18.86800003	22.375
         222	74	4	22.29899979	20.87199974	23.45700073
         223	75	1	18.55200005	20.86300087	21.16900063
         224	75	3	17.08200073	19.31299973	20.09199905
         225	75	4	18.0529995	22.25499916	20.80400085
         226	76	1	18.77199936	18.77400017	18.00300026
         227	76	3	18.08200073	16.4810009	18.10700035
         228	76	4	19.69400024	19.06299973	16.80900002
         229	77	1	20.15299988	15.67099953	19.70599937
         230	77	3	18.50900078	14.20800018	20.6609993
         231	77	4	21.52000046	15.55099964	20.37000084
         232	78	1	17.66900063	16.0359993	22.5720005
         233	78	3	15.31000042	15.62100029	22.70299911
         234	78	4	17.70299911	17.15800095	23.59600067
         235	79	1	14.81000042	16.06299973	20.05599976
         236	79	3	13.82199955	14.87199974	18.21999931
         237	79	4	14.39999962	17.41900063	19.47100067
         238	80	1	15.96800041	13.16399956	17.9090004
         239	80	3	15.38000011	13.07299995	15.59599972
         240	80	5	15.8739996	11.02242451	16.72710442
         241	81	1	16.97599983	15.26900005	14.90400028
         242	81	3	19.35700035	15.21399975	15.24699974
         243	81	4	16.60899925	16.75900078	14.90499973
         244	82	1	19.99300003	14.61999989	12.64099979
         245	82	3	20.43400002	16.95400047	12.9989996
         246	82	4	19.79100037	14.45699978	11.13399982
         247	83	1	23.08300018	16.60199928	13.56900024
         248	83	3	23.52400017	17.01000023	11.2489996
         249	83	5	22.1609993	16.23872849	13.74265118
         250	84	1	26.0	18.22500038	11.76000023
         251	84	3	26.94799995	16.03499985	11.64099979
         252	84	4	27.03899956	19.11599922	12.45199966
         253	85	1	27.73999977	16.25200081	9.01599979
         254	85	3	29.50699997	16.7329998	10.55000019
         255	85	4	28.10499954	16.75300026	7.61999989
         256	86	1	30.69099998	14.25500011	10.33600044
         257	86	3	32.85699844	15.26599979	10.53299999
         258	86	4	30.66399956	12.7329998	10.48799992
         259	87	1	33.57099915	14.7489996	7.89300013
         260	87	3	33.4620018	16.93600082	8.85599995
         261	87	5	32.30099869	13.24120304	6.71541827

Bond Coeffs

           1	10	3.77
           2	10	2.41
           3	10	2.50
           4	10	1.54
           5	10	1.54
Bonds

           1	2	1	2
           2	4	1	3
           3	1	1	4
           4	3	2	4
           5	2	4	5
           6	4	4	6
           7	1	4	7
           8	3	5	7
           9	2	7	8
          10	4	7	9
          11	1	7	10
          12	3	8	10
          13	2	10	11
          14	4	10	12
          15	1	10	13
          16	3	11	13
          17	2	13	14
          18	4	13	15
          19	1	13	16
          20	3	14	16
          21	2	16	17
          22	4	16	18
          23	1	16	19
          24	3	17	19
          25	2	19	20
          26	4	19	21
          27	1	19	22
          28	3	20	22
          29	2	22	23
          30	4	22	24
          31	1	22	25
          32	3	23	25
          33	2	25	26
          34	4	25	27
          35	1	25	28
          36	3	26	28
          37	2	28	29
          38	4	28	30
          39	1	28	31
          40	3	29	31
          41	2	31	32
          42	4	31	33
          43	1	31	34
          44	3	32	34
          45	2	34	35
          46	4	34	36
          47	1	34	37
          48	3	35	37
          49	2	37	38
          50	4	37	39
          51	1	37	40
          52	3	38	40
          53	2	40	41
          54	4	40	42
          55	1	40	43
          56	3	41	43
          57	2	43	44
          58	4	43	45
          59	1	43	46
          60	3	44	46
          61	2	46	47
          62	4	46	48
          63	1	46	49
          64	3	47	49
          65	2	49	50
          66	4	49	51
          67	1	49	52
          68	3	50	52
          69	2	52	53
          70	4	52	54
          71	1	52	55
          72	3	53	55
          73	2	55	56
          74	4	55	57
          75	1	55	58
          76	3	56	58
          77	2	58	59
          78	4	58	60
          79	1	58	61
          80	3	59	61
          81	2	61	62
          82	4	61	63
          83	1	61	64
          84	3	62	64
          85	2	64	65
          86	4	64	66
          87	1	64	67
          88	3	65	67
          89	2	67	68
          90	4	67	69
          91	1	67	70
          92	3	68	70
          93	2	70	71
          94	4	70	72
          95	1	70	73
          96	3	71	73
          97	2	73	74
          98	4	73	75
          99	1	73	76
         100	3	74	76
         101	2	76	77
         102	4	76	78
         103	1	76	79
         104	3	77	79
         105	2	79	80
         106	4	79	81
         107	1	79	82
         108	3	80	82
         109	2	82	83
         110	4	82	84
         111	1	82	85
         112	3	83	85
         113	2	85	86
         114	4	85	87
         115	1	85	88
         116	3	86	88
         117	2	88	89
         118	4	88	90
         119	1	88	91
         120	3	89	91
         121	2	91	92
         122	4	91	93
         123	1	91	94
         124	3	92	94
         125	2	94	95
         126	4	94	96
         127	1	94	97
         128	3	95	97
         129	2	97	98
         130	4	97	99
         131	1	97	100
         132	3	98	100
         133	2	100	101
         134	4	100	102
         135	1	100	103
         136	3	101	103
         137	2	103	104
         138	4	103	105
         139	1	103	106
         140	3	104	106
         141	2	106	107
         142	4	106	108
         143	1	106	109
         144	3	107	109
         145	2	109	110
         146	4	109	111
         147	1	109	112
         148	3	110	112
         149	2	112	113
         150	4	112	114
         151	1	112	115
         152	3	113	115
         153	2	115	116
         154	4	115	117
         155	1	115	118
         156	3	116	118
         157	2	118	119
         158	4	118	120
         159	1	118	121
         160	3	119	121
         161	2	121	122
         162	4	121	123
         163	1	121	124
         164	3	122	124
         165	2	124	125
         166	4	124	126
         167	1	124	127
         168	3	125	127
         169	2	127	128
         170	4	127	129
         171	1	127	130
         172	3	128	130
         173	2	130	131
         174	4	130	132
         175	1	130	133
         176	3	131	133
         177	2	133	134
         178	4	133	135
         179	1	133	136
         180	3	134	136
         181	2	136	137
         182	4	136	138
         183	1	136	139
         184	3	137	139
         185	2	139	140
         186	4	139	141
         187	1	139	142
         188	3	140	142
         189	2	142	143
         190	4	142	144
         191	1	142	145
         192	3	143	145
         193	2	145	146
         194	4	145	147
         195	1	145	148
         196	3	146	148
         197	2	148	149
         198	5	148	150
         199	1	148	151
         200	3	149	151
         201	2	151	152
         202	4	151	153
         203	1	151	154
         204	3	152	154
         205	2	154	155
         206	4	154	156
         207	1	154	157
         208	3	155	157
         209	2	157	158
         210	4	157	159
         211	1	157	160
         212	3	158	160
         213	2	160	161
         214	4	160	162
         215	1	160	163
         216	3	161	163
         217	2	163	164
         218	4	163	165
         219	1	163	166
         220	3	164	166
         221	2	166	167
         222	4	166	168
         223	1	166	169
         224	3	167	169
         225	2	169	170
         226	4	169	171
         227	1	169	172
         228	3	170	172
         229	2	172	173
         230	4	172	174
         231	1	172	175
         232	3	173	175
         233	2	175	176
         234	4	175	177
         235	1	175	178
         236	3	176	178
         237	2	178	179
         238	4	178	180
         239	1	178	181
         240	3	179	181
         241	2	181	182
         242	4	181	183
         243	1	181	184
         244	3	182	184
         245	2	184	185
         246	4	184	186
         247	1	184	187
         248	3	185	187
         249	2	187	188
         250	4	187	189
         251	1	187	190
         252	3	188	190
         253	2	190	191
         254	4	190	192
         255	1	190	193
         256	3	191	193
         257	2	193	194
         258	4	193	195
         259	1	193	196
         260	3	194	196
         261	2	196	197
         262	4	196	198
         263	1	196	199
         264	3	197	199
         265	2	199	200
         266	5	199	201
         267	1	199	202
         268	3	200	202
         269	2	202	203
         270	4	202	204
         271	1	202	205
         272	3	203	205
         273	2	205	206
         274	4	205	207
         275	1	205	208
         276	3	206	208
         277	2	208	209
         278	4	208	210
         279	1	208	211
         280	3	209	211
         281	2	211	212
         282	4	211	213
         283	1	211	214
         284	3	212	214
         285	2	214	215
         286	4	214	216
         287	1	214	217
         288	3	215	217
         289	2	217	218
         290	4	217	219
         291	1	217	220
         292	3	218	220
         293	2	220	221
         294	4	220	222
         295	1	220	223
         296	3	221	223
         297	2	223	224
         298	4	223	225
         299	1	223	226
         300	3	224	226
         301	2	226	227
         302	4	226	228
         303	1	226	229
         304	3	227	229
         305	2	229	230
         306	4	229	231
         307	1	229	232
         308	3	230	232
         309	2	232	233
         310	4	232	234
         311	1	232	235
         312	3	233	235
         313	2	235	236
         314	4	235	237
         315	1	235	238
         316	3	236	238
         317	2	238	239
         318	5	238	240
         319	1	238	241
         320	3	239	241
         321	2	241	242
         322	4	241	243
         323	1	241	244
         324	3	242	244
         325	2	244	245
         326	4	244	246
         327	1	244	247
         328	3	245	247
         329	2	247	248
         330	5	247	249
         331	1	247	250
         332	3	248	250
         333	2	250	251
         334	4	250	252
         335	1	250	253
         336	3	251	253
         337	2	253	254
         338	4	253	255
         339	1	253	256
         340	3	254	256
         341	2	256	257
         342	4	256	258
         343	1	256	259
         344	3	257	259
         345	2	259	260
         346	5	259	261

