LAMMPS protain data file

         108  atoms
         132  bonds
           0  angles
           0  dihedrals
           0  impropers

           5  atom types
           5  bond types
           0  angle types
           0  dihedral types
           0  improper types

-200.0	200.0	xlo xhi
-200.0	200.0	ylo yhi
-200.0	200.0	zlo zhi

Masses

           1	27.0
           2	14.0
           3	28.0
           4	60.0
           5	60.0

Atoms

           1	1	1	1	0.0	-27.55599976	-3.07599998	2.98000002
           2	1	1	3	0.0	-26.20499992	-1.28699994	3.76300001
           3	1	1	4	0.0	-27.37199974	-3.2750001	1.48399997
           4	1	2	1	0.0	-24.14800072	-2.98799992	4.63999987
           5	1	2	3	0.0	-22.88999939	-4.76200008	3.65100002
           6	1	2	4	0.0	-24.19400024	-3.51099992	6.079
           7	1	3	1	0.0	-20.60300064	-3.14899993	3.22600007
           8	1	3	3	0.0	-19.5359993	-1.19299996	4.08500004
           9	1	3	4	0.0	-20.36300087	-2.87599993	1.73500001
          10	1	4	1	0.0	-17.64999962	-2.57500005	5.56699991
          11	1	4	3	0.0	-16.1760006	-4.38500023	5.04199982
          12	1	4	4	0.0	-17.88999939	-2.76900005	7.0630002
          13	1	5	1	0.0	-14.09200001	-2.59500003	4.26200008
          14	1	5	3	0.0	-12.78299999	-0.889	5.26000023
          15	1	5	4	0.0	-13.96800041	-1.93299997	2.89299989
          16	1	6	1	0.0	-11.63099957	-2.56599998	7.13999987
          17	1	6	3	0.0	-9.80900002	-2.46300006	5.59000015
          18	1	6	4	0.0	-11.72099972	-3.59299994	8.27299976
          19	2	7	1	0.0	-27.55599976	1.79400003	2.98000002
          20	2	7	3	0.0	-26.20499992	3.58299994	3.76300001
          21	2	7	4	0.0	-27.37199974	1.59500003	1.48399997
          22	2	8	1	0.0	-24.14800072	1.88199997	4.63999987
          23	2	8	3	0.0	-22.88999939	0.108	3.65100002
          24	2	8	4	0.0	-24.19400024	1.35899997	6.079
          25	2	9	1	0.0	-20.60300064	1.72099996	3.22600007
          26	2	9	3	0.0	-19.5359993	3.67700005	4.08500004
          27	2	9	4	0.0	-20.36300087	1.99399996	1.73500001
          28	2	10	1	0.0	-17.64999962	2.29500008	5.56699991
          29	2	10	3	0.0	-16.1760006	0.48500001	5.04199982
          30	2	10	4	0.0	-17.88999939	2.10100007	7.0630002
          31	2	11	1	0.0	-14.09200001	2.2750001	4.26200008
          32	2	11	3	0.0	-12.78299999	3.98099995	5.26000023
          33	2	11	4	0.0	-13.96800041	2.93700004	2.89299989
          34	2	12	1	0.0	-11.63099957	2.3039999	7.13999987
          35	2	12	3	0.0	-9.80900002	2.40700006	5.59000015
          36	2	12	4	0.0	-11.72099972	1.27699995	8.27299976
          37	3	13	1	0.0	-27.55599976	6.66400003	2.98000002
          38	3	13	3	0.0	-26.20499992	8.45300007	3.76300001
          39	3	13	4	0.0	-27.37199974	6.46500015	1.48399997
          40	3	14	1	0.0	-24.14800072	6.75199986	4.63999987
          41	3	14	3	0.0	-22.88999939	4.97800016	3.65100002
          42	3	14	4	0.0	-24.19400024	6.22900009	6.079
          43	3	15	1	0.0	-20.60300064	6.59100008	3.22600007
          44	3	15	3	0.0	-19.5359993	8.54699993	4.08500004
          45	3	15	4	0.0	-20.36300087	6.86399984	1.73500001
          46	3	16	1	0.0	-17.64999962	7.16499996	5.56699991
          47	3	16	3	0.0	-16.1760006	5.35500002	5.04199982
          48	3	16	4	0.0	-17.88999939	6.97100019	7.0630002
          49	3	17	1	0.0	-14.09200001	7.14499998	4.26200008
          50	3	17	3	0.0	-12.78299999	8.85099983	5.26000023
          51	3	17	4	0.0	-13.96800041	7.80700016	2.89299989
          52	3	18	1	0.0	-11.63099957	7.17399979	7.13999987
          53	3	18	3	0.0	-9.80900002	7.27699995	5.59000015
          54	3	18	4	0.0	-11.72099972	6.14699984	8.27299976
          55	4	19	1	0.0	-14.75	-5.51100016	-2.98000002
          56	4	19	3	0.0	-16.10099983	-3.72199988	-3.76300001
          57	4	19	4	0.0	-14.93400002	-5.71000004	-1.48399997
          58	4	20	1	0.0	-18.15800095	-5.42299986	-4.63999987
          59	4	20	3	0.0	-19.41600037	-7.19700003	-3.65100002
          60	4	20	4	0.0	-18.11199951	-5.9460001	-6.079
          61	4	21	1	0.0	-21.70299911	-5.58400011	-3.22600007
          62	4	21	3	0.0	-22.77000046	-3.62800002	-4.08500004
          63	4	21	4	0.0	-21.94300079	-5.31099987	-1.73500001
          64	4	22	1	0.0	-24.65600014	-5.01000023	-5.56699991
          65	4	22	3	0.0	-26.12999916	-6.82000017	-5.04199982
          66	4	22	4	0.0	-24.41600037	-5.204	-7.0630002
          67	4	23	1	0.0	-28.2140007	-5.03000021	-4.26200008
          68	4	23	3	0.0	-29.52300072	-3.32399988	-5.26000023
          69	4	23	4	0.0	-28.33799934	-4.36800003	-2.89299989
          70	4	24	1	0.0	-30.67499924	-5.00099993	-7.13999987
          71	4	24	3	0.0	-32.49700165	-4.89799976	-5.59000015
          72	4	24	4	0.0	-30.58499908	-6.02799988	-8.27299976
          73	5	25	1	0.0	-14.75	-0.64099997	-2.98000002
          74	5	25	3	0.0	-16.10099983	1.148	-3.76300001
          75	5	25	4	0.0	-14.93400002	-0.83999997	-1.48399997
          76	5	26	1	0.0	-18.15800095	-0.55299997	-4.63999987
          77	5	26	3	0.0	-19.41600037	-2.3269999	-3.65100002
          78	5	26	4	0.0	-18.11199951	-1.07599998	-6.079
          79	5	27	1	0.0	-21.70299911	-0.71399999	-3.22600007
          80	5	27	3	0.0	-22.77000046	1.24199998	-4.08500004
          81	5	27	4	0.0	-21.94300079	-0.44100001	-1.73500001
          82	5	28	1	0.0	-24.65600014	-0.14	-5.56699991
          83	5	28	3	0.0	-26.12999916	-1.95000005	-5.04199982
          84	5	28	4	0.0	-24.41600037	-0.33399999	-7.0630002
          85	5	29	1	0.0	-28.2140007	-0.16	-4.26200008
          86	5	29	3	0.0	-29.52300072	1.546	-5.26000023
          87	5	29	4	0.0	-28.33799934	0.50199997	-2.89299989
          88	5	30	1	0.0	-30.67499924	-0.131	-7.13999987
          89	5	30	3	0.0	-32.49700165	-0.028	-5.59000015
          90	5	30	4	0.0	-30.58499908	-1.15799999	-8.27299976
          91	6	31	1	0.0	-14.75	4.22900009	-2.98000002
          92	6	31	3	0.0	-16.10099983	6.01800013	-3.76300001
          93	6	31	4	0.0	-14.93400002	4.03000021	-1.48399997
          94	6	32	1	0.0	-18.15800095	4.31699991	-4.63999987
          95	6	32	3	0.0	-19.41600037	2.54299998	-3.65100002
          96	6	32	4	0.0	-18.11199951	3.79399991	-6.079
          97	6	33	1	0.0	-21.70299911	4.15600014	-3.22600007
          98	6	33	3	0.0	-22.77000046	6.11199999	-4.08500004
          99	6	33	4	0.0	-21.94300079	4.4289999	-1.73500001
         100	6	34	1	0.0	-24.65600014	4.73000002	-5.56699991
         101	6	34	3	0.0	-26.12999916	2.92000008	-5.04199982
         102	6	34	4	0.0	-24.41600037	4.53599977	-7.0630002
         103	6	35	1	0.0	-28.2140007	4.71000004	-4.26200008
         104	6	35	3	0.0	-29.52300072	6.41599989	-5.26000023
         105	6	35	4	0.0	-28.33799934	5.37200022	-2.89299989
         106	6	36	1	0.0	-30.67499924	4.73899984	-7.13999987
         107	6	36	3	0.0	-32.49700165	4.84200001	-5.59000015
         108	6	36	4	0.0	-30.58499908	3.71199989	-8.27299976

Bond Coeffs

           1	200.0	3.77
           2	200.0	2.41
           3	200.0	2.50
           4	200.0	1.54
           5	200.0	1.54
Bonds

           1	2	1	2
           2	4	1	3
           3	1	1	4
           4	3	2	4
           5	2	4	5
           6	4	4	6
           7	1	4	7
           8	3	5	7
           9	2	7	8
          10	4	7	9
          11	1	7	10
          12	3	8	10
          13	2	10	11
          14	4	10	12
          15	1	10	13
          16	3	11	13
          17	2	13	14
          18	4	13	15
          19	1	13	16
          20	3	14	16
          21	2	16	17
          22	4	16	18
          23	2	19	20
          24	4	19	21
          25	1	19	22
          26	3	20	22
          27	2	22	23
          28	4	22	24
          29	1	22	25
          30	3	23	25
          31	2	25	26
          32	4	25	27
          33	1	25	28
          34	3	26	28
          35	2	28	29
          36	4	28	30
          37	1	28	31
          38	3	29	31
          39	2	31	32
          40	4	31	33
          41	1	31	34
          42	3	32	34
          43	2	34	35
          44	4	34	36
          45	2	37	38
          46	4	37	39
          47	1	37	40
          48	3	38	40
          49	2	40	41
          50	4	40	42
          51	1	40	43
          52	3	41	43
          53	2	43	44
          54	4	43	45
          55	1	43	46
          56	3	44	46
          57	2	46	47
          58	4	46	48
          59	1	46	49
          60	3	47	49
          61	2	49	50
          62	4	49	51
          63	1	49	52
          64	3	50	52
          65	2	52	53
          66	4	52	54
          67	2	55	56
          68	4	55	57
          69	1	55	58
          70	3	56	58
          71	2	58	59
          72	4	58	60
          73	1	58	61
          74	3	59	61
          75	2	61	62
          76	4	61	63
          77	1	61	64
          78	3	62	64
          79	2	64	65
          80	4	64	66
          81	1	64	67
          82	3	65	67
          83	2	67	68
          84	4	67	69
          85	1	67	70
          86	3	68	70
          87	2	70	71
          88	4	70	72
          89	2	73	74
          90	4	73	75
          91	1	73	76
          92	3	74	76
          93	2	76	77
          94	4	76	78
          95	1	76	79
          96	3	77	79
          97	2	79	80
          98	4	79	81
          99	1	79	82
         100	3	80	82
         101	2	82	83
         102	4	82	84
         103	1	82	85
         104	3	83	85
         105	2	85	86
         106	4	85	87
         107	1	85	88
         108	3	86	88
         109	2	88	89
         110	4	88	90
         111	2	91	92
         112	4	91	93
         113	1	91	94
         114	3	92	94
         115	2	94	95
         116	4	94	96
         117	1	94	97
         118	3	95	97
         119	2	97	98
         120	4	97	99
         121	1	97	100
         122	3	98	100
         123	2	100	101
         124	4	100	102
         125	1	100	103
         126	3	101	103
         127	2	103	104
         128	4	103	105
         129	1	103	106
         130	3	104	106
         131	2	106	107
         132	4	106	108

