LAMMPS protain data file

          56  atoms
           0  bonds
           0  angles
           0  dihedrals
           0  impropers

           1  atom types
           0  bond types
           0  angle types
           0  dihedral types
           0  improper types

-100.0	100.0	xlo xhi
-100.0	100.0	ylo yhi
-100.0	100.0	zlo zhi

Masses

           1	118.0

Atoms

           1	1	1	1	0.0	15.30799961	14.18000031	-2.95499992
           2	1	2	1	0.0	13.36499977	10.96000004	-3.63800001
           3	1	3	1	0.0	11.95499992	8.3039999	-1.278
           4	1	4	1	0.0	12.33699989	4.50299978	-1.10099995
           5	1	5	1	0.0	8.69799995	3.38599992	-1.48099995
           6	1	6	1	0.0	9.68900013	-0.15899999	-0.44600001
           7	1	7	1	0.0	12.82600021	-1.97599995	0.75099999
           8	1	8	1	0.0	14.08199978	-3.49300003	-2.54200006
           9	1	9	1	0.0	15.68099976	-6.74499989	-1.32200003
          10	1	10	1	0.0	18.30200005	-6.99900007	-4.09600019
          11	1	11	1	0.0	20.13999939	-10.34799957	-4.23699999
          12	1	12	1	0.0	23.45000076	-9.48700047	-5.95100021
          13	1	13	1	0.0	26.08699989	-7.06500006	-4.61899996
          14	1	14	1	0.0	25.79899979	-5.0710001	-7.8670001
          15	1	15	1	0.0	22.67399979	-3.34299994	-6.50500011
          16	1	16	1	0.0	22.42300034	-2.43499994	-2.80500007
          17	1	17	1	0.0	19.11899948	-3.19499993	-1.097
          18	1	18	1	0.0	17.81299973	-0.013	0.53799999
          19	1	19	1	0.0	14.68799973	0.47499999	2.64899993
          20	1	20	1	0.0	11.64999962	2.76200008	2.96499991
          21	1	21	1	0.0	12.01200008	5.9380002	5.05700016
          22	1	22	1	0.0	15.71899986	6.26200008	4.1880002
          23	1	23	1	0.0	16.90800095	9.27299976	2.15700006
          24	1	24	1	0.0	18.56900024	8.52200031	-1.20099998
          25	1	25	1	0.0	20.0189991	10.83899975	-3.87299991
          26	1	26	1	0.0	18.90299988	9.66300011	-7.33599997
          27	1	27	1	0.0	21.76499939	9.57699966	-9.86600018
          28	1	28	1	0.0	20.53899956	8.93999958	-13.42300034
          29	1	29	1	0.0	17.6779995	7.22800016	-15.30500031
          30	1	30	1	0.0	14.69200039	9.61200047	-15.23200035
          31	1	31	1	0.0	12.22500038	7.21099997	-16.89100075
          32	1	32	1	0.0	10.6960001	4.37300014	-14.84300041
          33	1	33	1	0.0	13.13700008	1.43799996	-14.59799957
          34	1	34	1	0.0	16.12199974	0.99000001	-12.24300003
          35	1	35	1	0.0	17.85899925	4.26800013	-11.43200016
          36	1	36	1	0.0	21.01399994	4.23500013	-9.28999996
          37	1	37	1	0.0	20.83300018	6.24399996	-6.05100012
          38	1	38	1	0.0	23.7159996	7.11100006	-3.69899988
          39	1	39	1	0.0	23.22200012	7.13399982	0.092
          40	1	40	1	0.0	24.53899956	10.27200031	1.83000004
          41	1	41	1	0.0	25.20100021	8.35400009	5.06799984
          42	1	42	1	0.0	28.08600044	6.03499985	4.1170001
          43	1	43	1	0.0	28.28300095	6.83799982	0.38800001
          44	1	44	1	0.0	27.50099945	3.45799994	-1.21200001
          45	1	45	1	0.0	25.96100044	3.01999998	-4.68100023
          46	1	46	1	0.0	22.82999992	0.86199999	-5.02699995
          47	1	47	1	0.0	20.31200027	0.55699998	-7.88399982
          48	1	48	1	0.0	16.93300056	1.47300005	-6.34399986
          49	1	49	1	0.0	13.96899986	0.178	-8.37300014
          50	1	50	1	0.0	11.80900002	2.98900008	-9.80099964
          51	1	51	1	0.0	8.67000008	1.18299997	-8.59500027
          52	1	52	1	0.0	10.32199955	1.10099995	-5.15500021
          53	1	53	1	0.0	11.125	4.84200001	-5.17700005
          54	1	54	1	0.0	9.19999981	8.0909996	-5.69099998
          55	1	55	1	0.0	10.07299995	11.78999996	-6.05600023
          56	1	56	1	0.0	9.02000046	12.8760004	-2.54399991

